 vasp.6.3.2 27Jun22 (build Jan 03 2024 23:25:20) gamma-only                     
  
 executed on           IFC15_impi date 2024.06.05  03:38:26
 running  512 mpi-ranks, with    1 threads/rank
 distrk:  each k-point on  512 cores,    1 groups
 distr:  one band on NCORE=  32 cores,   16 groups


--------------------------------------------------------------------------------------------------------


 INCAR:
   ENCUT = 500.000000
   SIGMA = 0.010000
   EDIFF = 1.00e-05
   ALGO = A
   ISMEAR = 0
   NELM = 200
   NSW = 999
   NCORE = 32
   LCHARG = .TRUE.
   LWAVE = .TRUE.
   LREAL = Auto
   IBRION = 5
   POTIM = 0.015
   NFREE = 2
   ISYM = 0
   EDIFFG = -0.05
   GGA = BF
   LUSE_VDW = .TRUE.
   ZAB_VDW = -1.8867
   LBEEFENS = .TRUE.
   DIPOL = 0.5 0.5 0.65
   IDIPOL = 3
   LDIPOL = .TRUE.

 POTCAR:    PAW_PBE Au 04Oct2007                  
 POTCAR:    PAW_PBE O 08Apr2002                   
 POTCAR:    PAW_PBE Sr_sv 07Sep2000               
 POTCAR:    PAW_PBE Ti_sv 26Sep2005               
 POTCAR:    PAW_PBE H 15Jun2001                   
 -----------------------------------------------------------------------------
|                                                                             |
|               ----> ADVICE to this user running VASP <----                  |
|                                                                             |
|     You have switched on vdW-DFT.                                           |
|     This routine was written and supplied by Jiri Klimes. We recommend      |
|     that you carefully read and cite the following publications:            |
|       J. Klimes, D.R. Bowler, A. Michelides                                 |
|          J. Phys.: Cond Matt. 22 022201 (2010)                              |
|       J. Klimes, D.R. Bowler, A. Michelides                                 |
|          Phys. Rev. B. 83, 195131 (2011)                                    |
|     and references therein.                                                 |
|                                                                             |
 -----------------------------------------------------------------------------

 POTCAR:    PAW_PBE Au 04Oct2007                  
   SHA256 =  d0044ae04e2bdce24051b198fc5c053d722a5bc6fe3c3b100514a13fc5d2db88 Au/POTCAR             
   COPYR  = (c) Copyright 04Oct2007 Georg Kresse                                                    
   COPYR  = This file is part of the software VASP. Any use, copying, and all other rights are regul
   COPYR  = If you do not have a valid VASP license, you may not use, copy or distribute this file. 
   VRHFIN =Au: s1d10                                                                                
   LEXCH  = PE                                                                                      
   EATOM  =   926.0867 eV,   68.0654 Ry                                                             
                                                                                                    
   TITEL  = PAW_PBE Au 04Oct2007                                                                    
   LULTRA =        F    use ultrasoft PP ?                                                          
   IUNSCR =        1    unscreen: 0-lin 1-nonlin 2-no                                               
   RPACOR =    2.330    partial core radius                                                         
   POMASS =  196.966; ZVAL   =   11.000    mass and valenz                                          
   RCORE  =    2.500    outmost cutoff radius                                                       
   RWIGS  =    2.840; RWIGS  =    1.503    wigner-seitz radius (au A)                               
   ENMAX  =  229.943; ENMIN  =  172.457 eV                                                          
   ICORE  =        3    local potential                                                             
   LCOR   =        T    correct aug charges                                                         
   LPAW   =        T    paw PP                                                                      
   EAUG   =  356.670                                                                                
   DEXC   =    0.000                                                                                
   RMAX   =    2.562    core radius for proj-oper                                                   
   RAUG   =    1.300    factor for augmentation sphere                                              
   RDEP   =    2.598    radius for radial grids                                                     
   RDEPT  =    2.193    core radius for aug-charge                                                  
                                                                                                    
   Atomic configuration                                                                             
   16 entries                                                                                       
     n  l   j            E        occ.                                                              
     1  0  0.50    -80748.5001   2.0000                                                             
     2  0  0.50    -14244.7466   2.0000                                                             
     2  1  1.50    -12310.9591   6.0000                                                             
     3  0  0.50     -3362.1768   2.0000                                                             
     3  1  1.50     -2801.5463   6.0000                                                             
     3  2  2.50     -2203.8206  10.0000                                                             
     4  0  0.50      -729.8168   2.0000                                                             
     4  1  1.50      -546.0527   6.0000                                                             
     4  2  2.50      -325.7302  10.0000                                                             
     4  3  3.50       -81.1472  14.0000                                                             
     5  0  0.50      -108.3201   2.0000                                                             
     5  1  1.50       -59.7479   6.0000                                                             
     5  2  2.50        -6.8783  10.0000                                                             
     6  0  0.50        -5.7602   1.0000                                                             
     6  1  1.50        -6.8029   0.0000                                                             
     5  3  2.50        -1.3606   0.0000                                                             
   Description                                                                                      
     l       E           TYP  RCUT    TYP  RCUT                                                     
     2     -6.8782861     23  2.500                                                                 
     2     -8.2388687     23  2.500                                                                 
     0     -5.7601759     23  2.500                                                                 
     0     -0.8493231     23  2.500                                                                 
     1     -2.7211652     23  2.500                                                                 
     1     27.2116520     23  2.500                                                                 
     3     -1.3605826     23  2.500                                                                 
  local pseudopotential read in
  partial core-charges read in
  partial kinetic energy density read in
  atomic valenz-charges read in
  non local Contribution for L=           2  read in
    real space projection operators read in
  non local Contribution for L=           2  read in
    real space projection operators read in
  non local Contribution for L=           0  read in
    real space projection operators read in
  non local Contribution for L=           0  read in
    real space projection operators read in
  non local Contribution for L=           1  read in
    real space projection operators read in
  non local Contribution for L=           1  read in
    real space projection operators read in
    PAW grid and wavefunctions read in
 
   number of l-projection  operators is LMAX  =           6
   number of lm-projection operators is LMMAX =          18
 
 POTCAR:    PAW_PBE O 08Apr2002                   
   SHA256 =  818f92134a0a090dccd8ba1447fa70422a3b330e708bb4f08108d8ae51209ddf O/POTCAR              
   COPYR  = (c) Copyright 08Apr2002 Georg Kresse                                                    
   COPYR  = This file is part of the software VASP. Any use, copying, and all other rights are regul
   COPYR  = If you do not have a valid VASP license, you may not use, copy or distribute this file. 
   VRHFIN =O: s2p4                                                                                  
   LEXCH  = PE                                                                                      
   EATOM  =   432.3788 eV,   31.7789 Ry                                                             
                                                                                                    
   TITEL  = PAW_PBE O 08Apr2002                                                                     
   LULTRA =        F    use ultrasoft PP ?                                                          
   IUNSCR =        1    unscreen: 0-lin 1-nonlin 2-no                                               
   RPACOR =    1.200    partial core radius                                                         
   POMASS =   16.000; ZVAL   =    6.000    mass and valenz                                          
   RCORE  =    1.520    outmost cutoff radius                                                       
   RWIGS  =    1.550; RWIGS  =    0.820    wigner-seitz radius (au A)                               
   ENMAX  =  400.000; ENMIN  =  300.000 eV                                                          
   ICORE  =        2    local potential                                                             
   LCOR   =        T    correct aug charges                                                         
   LPAW   =        T    paw PP                                                                      
   EAUG   =  605.392                                                                                
   DEXC   =    0.000                                                                                
   RMAX   =    1.553    core radius for proj-oper                                                   
   RAUG   =    1.300    factor for augmentation sphere                                              
   RDEP   =    1.550    radius for radial grids                                                     
   RDEPT  =    1.329    core radius for aug-charge                                                  
                                                                                                    
   Atomic configuration                                                                             
    4 entries                                                                                       
     n  l   j            E        occ.                                                              
     1  0  0.50      -514.6923   2.0000                                                             
     2  0  0.50       -23.9615   2.0000                                                             
     2  1  0.50        -9.0305   4.0000                                                             
     3  2  1.50        -9.5241   0.0000                                                             
   Description                                                                                      
     l       E           TYP  RCUT    TYP  RCUT                                                     
     0    -23.9615318     23  1.200                                                                 
     0     -9.5240782     23  1.200                                                                 
     1     -9.0304911     23  1.520                                                                 
     1      8.1634956     23  1.520                                                                 
     2     -9.5240782      7  1.500                                                                 
  local pseudopotential read in
  partial core-charges read in
  partial kinetic energy density read in
  kinetic energy density of atom read in
  atomic valenz-charges read in
  non local Contribution for L=           0  read in
    real space projection operators read in
  non local Contribution for L=           0  read in
    real space projection operators read in
  non local Contribution for L=           1  read in
    real space projection operators read in
  non local Contribution for L=           1  read in
    real space projection operators read in
    PAW grid and wavefunctions read in
 
   number of l-projection  operators is LMAX  =           4
   number of lm-projection operators is LMMAX =           8
 
 POTCAR:    PAW_PBE Sr_sv 07Sep2000               
   SHA256 =  a8389d3481648516ee67182ee030b298d280b37e29cbbf2d8595f040d757c710 Sr_sv/POTCAR          
   COPYR  = (c) Copyright 07Sep2000 Georg Kresse                                                    
   COPYR  = This file is part of the software VASP. Any use, copying, and all other rights are regul
   COPYR  = If you do not have a valid VASP license, you may not use, copy or distribute this file. 
   VRHFIN =Sr: 4s4p5s                                                                               
   LEXCH  = PE                                                                                      
   EATOM  =   843.0319 eV,   61.9611 Ry                                                             
                                                                                                    
   TITEL  = PAW_PBE Sr_sv 07Sep2000                                                                 
   LULTRA =        F    use ultrasoft PP ?                                                          
   IUNSCR =        1    unscreen: 0-lin 1-nonlin 2-no                                               
   RPACOR =    2.200    partial core radius                                                         
   POMASS =   87.620; ZVAL   =   10.000    mass and valenz                                          
   RCORE  =    2.500    outmost cutoff radius                                                       
   RWIGS  =    4.040; RWIGS  =    2.138    wigner-seitz radius (au A)                               
   ENMAX  =  229.353; ENMIN  =  172.014 eV                                                          
   RCLOC  =    2.201    cutoff for local pot                                                        
   LCOR   =        T    correct aug charges                                                         
   LPAW   =        T    paw PP                                                                      
   EAUG   =  366.804                                                                                
   DEXC   =    0.000                                                                                
   RMAX   =    2.547    core radius for proj-oper                                                   
   RAUG   =    1.300    factor for augmentation sphere                                              
   RDEP   =    2.562    radius for radial grids                                                     
   RDEPT  =    2.128    core radius for aug-charge                                                  
                                                                                                    
   Atomic configuration                                                                             
   10 entries                                                                                       
     n  l   j            E        occ.                                                              
     1  0  0.50    -15934.8930   2.0000                                                             
     2  0  0.50     -2157.6250   2.0000                                                             
     2  1  1.50     -1917.0034   6.0000                                                             
     3  0  0.50      -333.7288   2.0000                                                             
     3  1  1.50      -256.0992   6.0000                                                             
     3  2  2.50      -127.9971  10.0000                                                             
     4  0  0.50       -40.8953   2.0000                                                             
     5  0  0.50        -3.5257   1.9990                                                             
     4  1  1.50       -22.8179   6.0000                                                             
     4  2  1.50        -1.2815   0.0010                                                             
   Description                                                                                      
     l       E           TYP  RCUT    TYP  RCUT                                                     
     0    -40.8953213     23  2.480                                                                 
     0     -3.5257161     23  2.480                                                                 
     1    -22.8178632     23  2.500                                                                 
     1    -24.1784458     23  2.500                                                                 
     2     -1.2814598     23  2.500                                                                 
     2      0.2279365     23  2.500                                                                 
  local pseudopotential read in
  partial core-charges read in
  partial kinetic energy density read in
  atomic valenz-charges read in
  non local Contribution for L=           0  read in
    real space projection operators read in
  non local Contribution for L=           0  read in
    real space projection operators read in
  non local Contribution for L=           1  read in
    real space projection operators read in
  non local Contribution for L=           1  read in
    real space projection operators read in
  non local Contribution for L=           2  read in
    real space projection operators read in
  non local Contribution for L=           2  read in
    real space projection operators read in
    PAW grid and wavefunctions read in
 
   number of l-projection  operators is LMAX  =           6
   number of lm-projection operators is LMMAX =          18
 
 POTCAR:    PAW_PBE Ti_sv 26Sep2005               
   SHA256 =  4d747badb5a5ea28d858fbac70885b3f8929d6fd9e5b0dbe1ecb9878dc164da1 Ti_sv/POTCAR          
   COPYR  = (c) Copyright 26Sep2005 Georg Kresse                                                    
   COPYR  = This file is part of the software VASP. Any use, copying, and all other rights are regul
   COPYR  = If you do not have a valid VASP license, you may not use, copy or distribute this file. 
   VRHFIN =Ti: 3p4s3d                                                                               
   LEXCH  = PE                                                                                      
   EATOM  =  1588.0892 eV,  116.7213 Ry                                                             
                                                                                                    
   TITEL  = PAW_PBE Ti_sv 26Sep2005                                                                 
   LULTRA =        F    use ultrasoft PP ?                                                          
   IUNSCR =        1    unscreen: 0-lin 1-nonlin 2-no                                               
   RPACOR =    2.000    partial core radius                                                         
   POMASS =   47.880; ZVAL   =   12.000    mass and valenz                                          
   RCORE  =    2.300    outmost cutoff radius                                                       
   RWIGS  =    2.300; RWIGS  =    1.217    wigner-seitz radius (au A)                               
   ENMAX  =  274.610; ENMIN  =  205.957 eV                                                          
   ICORE  =        3    local potential                                                             
   LCOR   =        T    correct aug charges                                                         
   LPAW   =        T    paw PP                                                                      
   EAUG   =  482.848                                                                                
   RMAX   =    2.348    core radius for proj-oper                                                   
   RAUG   =    1.300    factor for augmentation sphere                                              
   RDEP   =    2.381    radius for radial grids                                                     
   RDEPT  =    1.930    core radius for aug-charge                                                  
                                                                                                    
   Atomic configuration                                                                             
    8 entries                                                                                       
     n  l   j            E        occ.                                                              
     1  0  0.50     -4865.3608   2.0000                                                             
     2  0  0.50      -533.1368   2.0000                                                             
     2  1  1.50      -440.5031   6.0000                                                             
     3  0  0.50       -59.3186   2.0000                                                             
     4  0  0.50        -3.7291   1.0000                                                             
     3  1  1.50       -35.7012   6.0000                                                             
     3  2  2.50        -1.9157   3.0000                                                             
     4  3  2.50        -1.3606   0.0000                                                             
   Description                                                                                      
     l       E           TYP  RCUT    TYP  RCUT                                                     
     0    -59.3185931     23  1.800                                                                 
     0     -3.7290822     23  2.300                                                                 
     1    -35.7012045     23  2.300                                                                 
     1     -1.3605826     23  2.300                                                                 
     2     -1.9156920     23  2.300                                                                 
     2     -0.0236318     23  2.300                                                                 
     3     -1.3605826     23  2.300                                                                 
  local pseudopotential read in
  partial core-charges read in
  partial kinetic energy density read in
  atomic valenz-charges read in
  non local Contribution for L=           0  read in
    real space projection operators read in
  non local Contribution for L=           0  read in
    real space projection operators read in
  non local Contribution for L=           1  read in
    real space projection operators read in
  non local Contribution for L=           1  read in
    real space projection operators read in
  non local Contribution for L=           2  read in
    real space projection operators read in
  non local Contribution for L=           2  read in
    real space projection operators read in
    PAW grid and wavefunctions read in
 
   number of l-projection  operators is LMAX  =           6
   number of lm-projection operators is LMMAX =          18
 
 POTCAR:    PAW_PBE H 15Jun2001                   
   SHA256 =  030f79b5d3ab3cf0e668861823c8fb652ff669f3e15e46930bd03bfd63a607b6 H/POTCAR              
   COPYR  = (c) Copyright 15Jun2001 Georg Kresse                                                    
   COPYR  = This file is part of the software VASP. Any use, copying, and all other rights are regul
   COPYR  = If you do not have a valid VASP license, you may not use, copy or distribute this file. 
   VRHFIN =H: ultrasoft test                                                                        
   LEXCH  = PE                                                                                      
   EATOM  =    12.4884 eV,    0.9179 Ry                                                             
                                                                                                    
   TITEL  = PAW_PBE H 15Jun2001                                                                     
   LULTRA =        F    use ultrasoft PP ?                                                          
   IUNSCR =        0    unscreen: 0-lin 1-nonlin 2-no                                               
   RPACOR =    0.000    partial core radius                                                         
   POMASS =    1.000; ZVAL   =    1.000    mass and valenz                                          
   RCORE  =    1.100    outmost cutoff radius                                                       
   RWIGS  =    0.700; RWIGS  =    0.370    wigner-seitz radius (au A)                               
   ENMAX  =  250.000; ENMIN  =  200.000 eV                                                          
   RCLOC  =    0.701    cutoff for local pot                                                        
   LCOR   =        T    correct aug charges                                                         
   LPAW   =        T    paw PP                                                                      
   EAUG   =  400.000                                                                                
   RMAX   =    1.123    core radius for proj-oper                                                   
   RAUG   =    1.200    factor for augmentation sphere                                              
   RDEP   =    1.112    radius for radial grids                                                     
   RDEPT  =    0.926    core radius for aug-charge                                                  
                                                                                                    
   Atomic configuration                                                                             
    2 entries                                                                                       
     n  l   j            E        occ.                                                              
     1  0  0.50        -6.4927   1.0000                                                             
     2  1  0.50        -3.4015   0.0000                                                             
   Description                                                                                      
     l       E           TYP  RCUT    TYP  RCUT                                                     
     0     -6.4927494     23  1.100                                                                 
     0      6.8029130     23  1.100                                                                 
     1     -4.0817478     23  1.100                                                                 
  local pseudopotential read in
  atomic valenz-charges read in
  non local Contribution for L=           0  read in
    real space projection operators read in
  non local Contribution for L=           0  read in
    real space projection operators read in
  non local Contribution for L=           1  read in
    real space projection operators read in
    PAW grid and wavefunctions read in
 
   number of l-projection  operators is LMAX  =           3
   number of lm-projection operators is LMMAX =           5
 
 Optimization of the real space projectors (new method)

 maximal supplied QI-value         = 15.12
 optimisation between [QCUT,QGAM] = [ 11.34, 22.83] = [ 36.00,145.93] Ry 
 Optimized for a Real-space Cutoff    1.39 Angstroem

   l    n(q)    QCUT    max X(q) W(low)/X(q) W(high)/X(q)  e(spline) 
   2      9    11.338    60.898    0.39E-03    0.42E-03    0.21E-06
   2      9    11.338    58.894    0.40E-03    0.42E-03    0.22E-06
   0      9    11.338   109.617    0.13E-03    0.20E-04    0.13E-06
   0      9    11.338    75.026    0.13E-03    0.20E-04    0.13E-06
   1      9    11.338    16.344    0.33E-04    0.24E-03    0.18E-06
   1      9    11.338    10.160    0.26E-04    0.19E-03    0.15E-06
 Optimization of the real space projectors (new method)

 maximal supplied QI-value         = 24.76
 optimisation between [QCUT,QGAM] = [ 11.39, 22.77] = [ 36.31,145.25] Ry 
 Optimized for a Real-space Cutoff    1.00 Angstroem

   l    n(q)    QCUT    max X(q) W(low)/X(q) W(high)/X(q)  e(spline) 
   0      7    11.387    20.381    0.39E-03    0.13E-02    0.15E-06
   0      7    11.387    15.268    0.42E-03    0.14E-02    0.17E-06
   1      6    11.387     5.964    0.41E-03    0.11E-02    0.17E-06
   1      6    11.387     5.382    0.39E-03    0.87E-03    0.15E-06
 Optimization of the real space projectors (new method)

 maximal supplied QI-value         = 15.12
 optimisation between [QCUT,QGAM] = [ 11.34, 22.83] = [ 36.00,145.93] Ry 
 Optimized for a Real-space Cutoff    1.56 Angstroem

   l    n(q)    QCUT    max X(q) W(low)/X(q) W(high)/X(q)  e(spline) 
   0     11    11.338    11.565    0.26E-04    0.80E-05    0.70E-07
   0     11    11.338    10.214    0.41E-04    0.15E-04    0.15E-06
   1     10    11.338   189.983    0.18E-03    0.52E-04    0.42E-06
   1     10    11.338   193.105    0.19E-03    0.52E-04    0.42E-06
   2     10    11.338   115.941    0.22E-03    0.42E-03    0.43E-06
   2     10    11.338    76.444    0.21E-03    0.41E-03    0.42E-06
 Optimization of the real space projectors (new method)

 maximal supplied QI-value         = 16.25
 optimisation between [QCUT,QGAM] = [ 11.38, 22.75] = [ 36.24,144.96] Ry 
 Optimized for a Real-space Cutoff    1.27 Angstroem

   l    n(q)    QCUT    max X(q) W(low)/X(q) W(high)/X(q)  e(spline) 
   0      9    11.376    12.277    0.53E-04    0.25E-04    0.25E-07
   0      9    11.376    11.419    0.89E-04    0.67E-05    0.35E-07
   1      8    11.376     4.010    0.13E-03    0.11E-03    0.29E-07
   1      8    11.376     6.182    0.94E-04    0.19E-03    0.11E-06
   2      8    11.376    47.177    0.13E-03    0.88E-03    0.24E-06
   2      8    11.376    42.437    0.13E-03    0.86E-03    0.23E-06
 Optimization of the real space projectors (new method)

 maximal supplied QI-value         = 34.20
 optimisation between [QCUT,QGAM] = [ 11.29, 22.57] = [ 35.68,142.71] Ry 
 Optimized for a Real-space Cutoff    1.16 Angstroem

   l    n(q)    QCUT    max X(q) W(low)/X(q) W(high)/X(q)  e(spline) 
   0      8    11.287    19.460    0.40E-03    0.73E-03    0.16E-06
   0      8    11.287    12.209    0.38E-03    0.70E-03    0.15E-06
   1      7    11.287     4.655    0.22E-03    0.25E-04    0.22E-06
 -----------------------------------------------------------------------------
|                                                                             |
|               ----> ADVICE to this user running VASP <----                  |
|                                                                             |
|     You enforced a specific xc type in the INCAR file but a different       |
|     type was found in the POTCAR file.                                      |
|     I HOPE YOU KNOW WHAT YOU ARE DOING!                                     |
|                                                                             |
 -----------------------------------------------------------------------------

  PAW_PBE Au 04Oct2007                  :
 energy of atom  1       EATOM= -926.0867
 kinetic energy error for atom=    0.0042 (will be added to EATOM!!)
  PAW_PBE O 08Apr2002                   :
 energy of atom  2       EATOM= -432.3788
 kinetic energy error for atom=    0.0224 (will be added to EATOM!!)
  PAW_PBE Sr_sv 07Sep2000               :
 energy of atom  3       EATOM= -843.0319
 kinetic energy error for atom=    0.0012 (will be added to EATOM!!)
  PAW_PBE Ti_sv 26Sep2005               :
 energy of atom  4       EATOM=-1588.0892
 kinetic energy error for atom=    0.0046 (will be added to EATOM!!)
  PAW_PBE H 15Jun2001                   :
 energy of atom  5       EATOM=  -12.4884
 kinetic energy error for atom=    0.0020 (will be added to EATOM!!)
 
 
 POSCAR: Au O  Sr Ti H
  positions in cartesian coordinates
  No initial velocities read in
 exchange correlation table for  LEXCH =       17
   RHO(1)=    0.500       N(1)  =     2000
   RHO(2)=  100.500       N(2)  =     4000

 VTST: version 4.1, (05/19/21)

 CHAIN: initializing optimizer
 
 OPT: Using VASP Dynamics algorithm
 CHAIN: Read ICHAIN            0
 
 POSCAR: Au O  Sr Ti H
  positions in cartesian coordinates
  No initial velocities read in
 


--------------------------------------------------------------------------------------------------------


 ion  position               nearest neighbor table
   1  0.717  0.526  0.754-  15 2.71  16 2.72  14 2.78  44 2.83   2 2.84  29 2.96  46 3.00
   2  0.623  0.569  0.704- 264 2.08  15 2.82   1 2.84  46 2.88  48 2.88  16 2.91  12 2.92  36 3.04
                            11 3.29   5 3.49 380 3.71
   3  0.719  0.259  0.692- 294 2.06 253 2.07  32 2.65  43 2.79  27 2.83 401 3.04 370 4.02 371 4.03

   4  0.295  0.746  0.697- 310 2.06 266 2.06   9 2.78  23 2.81  50 3.09  42 3.16  45 3.55 368 4.18
                           372 4.19
   5  0.512  0.604  0.777-  26 2.69  48 2.76  13 2.84  12 2.92  47 2.93  39 2.95  16 3.03   6 3.16
                            49 3.35  31 3.47   2 3.49
   6  0.578  0.725  0.793-  18 2.72  36 2.73  17 2.79  47 2.80  13 2.99   5 3.16  48 3.17  16 3.43

   7  0.550  0.384  0.829-  10 2.77  33 2.81  29 2.86  20 2.87  34 2.97  31 2.97  12 3.04  41 3.37

   8  0.241  0.469  0.709- 309 2.11  19 2.69  24 2.81  45 2.82  40 2.97  35 3.09 378 4.16
   9  0.285  0.662  0.765-  45 2.70  30 2.75  50 2.76   4 2.78  24 2.81
  10  0.603  0.289  0.787-   7 2.77  41 2.79  32 2.79  27 2.80  43 2.80  25 3.06  34 3.27
  11  0.514  0.484  0.678- 279 2.11 247 2.16  26 2.69  12 2.78  49 2.90  34 2.91 389 3.13   2 3.29
                            46 3.33 375 3.55  37 3.59 386 4.04
  12  0.562  0.486  0.763-  11 2.78  34 2.80  49 2.84  29 2.85  31 2.88   5 2.92   2 2.92  46 2.98
                            16 3.00   7 3.04
  13  0.464  0.695  0.831-  50 2.80  30 2.84   5 2.84  47 2.85  39 2.91  18 2.93   6 2.99
  14  0.765  0.432  0.706- 254 2.01  44 2.72   1 2.78  46 2.80  43 2.87 363 3.73 370 4.24
  15  0.733  0.615  0.694- 292 2.09 250 2.11  36 2.67   1 2.71   2 2.82  28 3.23 380 3.41 365 3.72

  16  0.635  0.584  0.800-   1 2.72  47 2.76  36 2.78  31 2.82   2 2.91  12 3.00   5 3.03  29 3.24
                             6 3.43
  17  0.595  0.784  0.713- 257 2.09  28 2.78   6 2.79  18 2.92  48 2.94  36 3.09 379 4.19 384 4.35

  18  0.485  0.779  0.757-   6 2.72  23 2.81  50 2.85  17 2.92  42 2.93  13 2.93  48 3.30
  19  0.349  0.500  0.697- 291 2.11   8 2.69  37 2.87  49 2.89  24 2.91  40 2.93  45 3.01  26 3.03
                           368 4.15 369 4.25
  20  0.430  0.372  0.815-  33 2.77  21 2.79   7 2.87  49 2.91  41 2.92  40 2.98  38 3.04  34 3.17

  21  0.372  0.299  0.755-  37 2.76  35 2.78  20 2.79  40 2.83  41 2.86  22 2.86
  22  0.442  0.228  0.697- 302 2.01 289 2.15  41 2.74  25 2.79  21 2.86  37 3.59 376 3.87 367 4.35

  23  0.392  0.818  0.707- 290 2.08  42 2.78  18 2.81  50 2.81   4 2.81 372 3.66 384 4.11
  24  0.290  0.537  0.777-   9 2.81  38 2.81   8 2.81  45 2.88  40 2.89  30 2.90  19 2.91
  25  0.556  0.210  0.712- 311 2.13  22 2.79  41 2.84  27 2.86  32 2.87  10 3.06 376 3.95
  26  0.452  0.580  0.702- 291 2.11   5 2.69  11 2.69  42 2.73  49 2.86  48 2.87  19 3.03 386 3.62

  27  0.614  0.321  0.697- 263 2.04  43 2.76  10 2.80   3 2.83  46 2.85  25 2.86  34 2.87  32 3.50
                           370 3.56 375 4.22
  28  0.706  0.757  0.689- 293 2.05 250 2.05  36 2.63  17 2.78 400 3.13  15 3.23 379 3.81 380 4.18

  29  0.656  0.441  0.813-  44 2.85  12 2.85   7 2.86  31 2.87  43 2.90   1 2.96  16 3.24  46 3.49

  30  0.368  0.619  0.820-   9 2.75  39 2.78  13 2.84  38 2.85  24 2.90  50 2.97
  31  0.570  0.510  0.857-  33 2.77  16 2.82  29 2.87  12 2.88  47 2.90  39 2.92   7 2.97   5 3.47

  32  0.665  0.193  0.752-   3 2.65  10 2.79  25 2.87  27 3.50  43 3.53
  33  0.471  0.450  0.879-  31 2.77  20 2.77  39 2.79   7 2.81  38 2.83
  34  0.516  0.377  0.734-  12 2.80  41 2.81  49 2.86  27 2.87  11 2.91   7 2.97  37 3.09  20 3.17
                            10 3.27 375 4.18
  35  0.283  0.338  0.703- 267 2.06  21 2.78  40 2.81  37 2.91   8 3.09 369 3.53 378 4.09
  36  0.669  0.681  0.749-  28 2.63  15 2.67   6 2.73  16 2.78   2 3.04  17 3.09  48 3.34
  37  0.398  0.382  0.690- 303 2.03 289 2.13  21 2.76  19 2.87  35 2.91  40 3.00  49 3.07  34 3.09
                           369 3.38  22 3.59  11 3.59 375 3.77
  38  0.375  0.493  0.833-  24 2.81  33 2.83  49 2.84  40 2.85  30 2.85  39 2.88  20 3.04
  39  0.462  0.573  0.864-  30 2.78  33 2.79  47 2.83  38 2.88  13 2.91  31 2.92   5 2.95
  40  0.326  0.414  0.769-  35 2.81  21 2.83  38 2.85  24 2.89  19 2.93   8 2.97  20 2.98  37 3.00
                            49 3.11
  41  0.487  0.269  0.775-  22 2.74  10 2.79  34 2.81  25 2.84  21 2.86  20 2.92   7 3.37
  42  0.421  0.698  0.699- 256 2.03  26 2.73  50 2.77  23 2.78  18 2.93  48 2.97   4 3.16 386 4.07
                           368 4.07
  43  0.700  0.347  0.756-  27 2.76   3 2.79  10 2.80  44 2.82  14 2.87  29 2.90  46 3.05  32 3.53

  44  0.774  0.430  0.796-  14 2.72  43 2.82   1 2.83  29 2.85
  45  0.257  0.592  0.695- 265 2.03 310 2.11   9 2.70   8 2.82  24 2.88  19 3.01   4 3.55 368 3.57
                           373 3.71
  46  0.648  0.443  0.697- 279 2.19  14 2.80  27 2.85   2 2.88  12 2.98   1 3.00  43 3.05  11 3.33
                            29 3.49 370 3.51
  47  0.564  0.639  0.861-  16 2.76   6 2.80  39 2.83  13 2.85  31 2.90   5 2.93
  48  0.542  0.666  0.701- 280 2.11   5 2.76  26 2.87   2 2.88  17 2.94  42 2.97   6 3.17  18 3.30
                            36 3.34 386 3.47
  49  0.443  0.475  0.756-  38 2.84  12 2.84  26 2.86  34 2.86  19 2.89  11 2.90  20 2.91  37 3.07
                            40 3.11   5 3.35
  50  0.374  0.739  0.779-   9 2.76  42 2.77  13 2.80  23 2.81  18 2.85  30 2.97   4 3.09
  51  0.250  0.189  0.454- 448 1.97 418 2.13 319 2.74 360 2.81 342 2.81 327 2.85
  52  0.750  0.939  0.455- 417 1.95 444 1.99 350 2.82 339 2.84 322 2.84 332 2.86
  53  0.749  0.689  0.457- 432 1.98 446 2.04 325 2.78 362 2.84 348 2.85 316 2.88
  54  0.749  0.438  0.456- 422 1.99 458 2.01 323 2.71 347 2.82 349 2.84 359 2.85
  55  0.750  0.190  0.456- 445 1.98 423 2.10 324 2.75 335 2.79 358 2.85 346 2.86
  56  0.417  0.936  0.454- 424 1.99 440 2.01 357 2.77 345 2.79 329 2.87 320 2.91
  57  0.417  0.685  0.455- 414 1.91 443 2.04 356 2.77 344 2.79 321 2.83 331 2.91
  58  0.416  0.435  0.454- 415 1.96 442 2.01 343 2.77 355 2.78 333 2.84 318 2.85
  59  0.085  0.687  0.453- 439 1.97 413 2.08 352 2.75 340 2.79 330 2.82 336 2.94
  60  0.084  0.937  0.453- 436 1.98 412 2.11 353 2.77 341 2.79 338 2.89 326 2.90
  61  0.083  0.437  0.453- 438 1.97 421 2.11 361 2.76 351 2.78 328 2.79 317 2.92
  62  0.084  0.187  0.453- 437 1.98 433 2.11 360 2.76 385 2.78 327 2.87 337 2.89
  63  0.917  0.812  0.454- 434 1.99 411 2.09 362 2.76 339 2.80 341 2.80 336 2.87
  64  0.916  0.562  0.454- 435 1.98 410 2.11 349 2.78 316 2.79 340 2.80 317 2.88
  65  0.251  0.439  0.455- 449 1.98 420 2.06 318 2.70 343 2.81 351 2.85 328 2.85
  66  0.916  0.061  0.455- 455 1.98 430 2.11 358 2.82 332 2.82 385 2.83 338 2.85
  67  0.916  0.312  0.454- 456 1.98 429 2.09 335 2.79 359 2.79 361 2.81 337 2.88
  68  0.417  0.187  0.454- 441 1.98 416 2.07 354 2.78 342 2.79 334 2.81 319 2.88
  69  0.252  0.688  0.456- 419 1.99 450 2.03 321 2.76 344 2.80 352 2.87 330 2.89
  70  0.917  0.936  0.453- 455 1.98 411 2.11 341 2.76 339 2.77 338 2.89 332 2.90
  71  0.583  0.190  0.455- 452 1.98 426 2.09 334 2.72 324 2.78 354 2.83 346 2.85
  72  1.000  0.125  0.499- 430 1.96 433 1.99 385 2.76 338 2.80 337 2.80 315 3.42
  73  0.583  0.810  0.455- 454 1.98 431 2.10 325 2.73 331 2.75 357 2.84 350 2.85
  74  1.000  0.374  0.498- 429 1.94 421 1.96 361 2.74 337 2.76 317 2.85
  75  1.000  0.627  0.498- 413 1.94 410 1.95 340 2.73 336 2.77 317 2.83
  76  0.334  0.126  0.499- 416 1.95 418 2.01 319 2.74 342 2.74 320 2.79 367 3.45
  77  0.000  0.875  0.500- 411 1.97 412 1.97 341 2.78 336 2.78 338 2.80
  78  0.333  0.874  0.499- 424 1.97 425 2.00 321 2.74 345 2.77 320 2.84 372 3.11
  79  0.666  0.126  0.499- 426 1.97 423 2.00 324 2.73 346 2.77 322 2.81 371 3.40
  80  0.336  0.626  0.504- 414 1.93 419 2.07 368 2.75 321 2.80 318 2.82 344 2.91
  81  0.334  0.378  0.503- 415 1.94 420 2.08 318 2.70 369 2.70 343 2.88 319 2.91
  82  0.665  0.379  0.503- 428 1.94 422 2.06 323 2.71 370 2.74 347 2.88 324 2.92
  83  0.916  0.687  0.453- 434 1.98 410 2.09 316 2.76 340 2.80 362 2.80 336 2.93
  84  0.916  0.437  0.454- 435 1.98 429 2.09 359 2.77 349 2.78 361 2.80 317 2.92
  85  0.916  0.187  0.453- 456 1.97 430 2.11 358 2.76 385 2.78 335 2.81 337 2.92
  86  0.583  0.937  0.454- 451 2.00 431 2.06 357 2.79 350 2.81 329 2.85 322 2.88
  87  0.583  0.686  0.455- 427 1.91 454 2.02 356 2.78 348 2.80 325 2.83 331 2.86
  88  0.583  0.439  0.456- 453 2.00 428 2.02 333 2.70 323 2.78 355 2.84 347 2.86
  89  0.250  0.936  0.454- 425 1.94 447 2.01 345 2.78 353 2.78 320 2.89 326 2.92
  90  0.665  0.626  0.503- 427 1.93 432 2.06 380 2.72 325 2.81 323 2.82 348 2.88
  91  0.585  0.563  0.455- 427 1.99 453 2.01 333 2.77 348 2.79 323 2.79 356 2.83
  92  0.583  0.063  0.454- 451 2.00 426 2.03 354 2.79 346 2.79 322 2.87 329 2.88
  93  0.917  0.687  0.361- 434 1.97 340 2.79 316 2.79
  94  0.917  0.437  0.361- 435 1.97 361 2.79 359 2.79
  95  0.917  0.188  0.361- 456 1.97 385 2.79 358 2.79
  96  0.583  0.938  0.361- 451 1.97 357 2.79 350 2.79
  97  0.583  0.687  0.361- 454 1.97 356 2.79 348 2.79
  98  0.583  0.437  0.361- 453 1.97 355 2.79 347 2.79
  99  0.583  0.188  0.361- 452 1.97 354 2.79 346 2.79
 100  0.250  0.938  0.361- 447 1.97 353 2.79 345 2.79
 101  0.917  0.938  0.361- 455 1.97 341 2.79 339 2.79
 102  0.250  0.687  0.361- 450 1.97 352 2.79 344 2.79
 103  0.250  0.188  0.361- 448 1.97 360 2.79 342 2.79
 104  0.750  0.938  0.361- 444 1.97 350 2.79 339 2.79
 105  0.750  0.687  0.361- 446 1.97 348 2.79 316 2.79
 106  0.750  0.437  0.361- 458 1.97 347 2.79 359 2.79
 107  0.750  0.188  0.361- 445 1.97 346 2.79 358 2.79
 108  0.417  0.938  0.361- 440 1.97 345 2.79 357 2.79
 109  0.417  0.687  0.361- 443 1.97 344 2.79 356 2.79
 110  0.417  0.437  0.361- 442 1.97 343 2.79 355 2.79
 111  0.250  0.437  0.361- 449 1.97 351 2.79 343 2.79
 112  0.083  0.063  0.361- 436 1.97 385 2.79 360 2.79
 113  0.083  0.312  0.361- 437 1.97 361 2.79 351 2.79
 114  0.083  0.563  0.361- 438 1.97 352 2.79 340 2.79
 115  0.917  0.312  0.361- 456 1.97 361 2.79 359 2.79
 116  0.917  0.063  0.361- 455 1.97 385 2.79 358 2.79
 117  0.583  0.812  0.361- 454 1.97 357 2.79 350 2.79
 118  0.583  0.563  0.361- 453 1.97 356 2.79 348 2.79
 119  0.583  0.312  0.361- 452 1.97 355 2.79 347 2.79
 120  0.583  0.063  0.361- 451 1.97 354 2.79 346 2.79
 121  0.250  0.812  0.361- 450 1.97 353 2.79 345 2.79
 122  0.250  0.563  0.361- 449 1.97 352 2.79 344 2.79
 123  0.250  0.312  0.361- 448 1.97 351 2.79 343 2.79
 124  0.250  0.063  0.361- 447 1.97 360 2.79 342 2.79
 125  0.750  0.812  0.361- 446 1.97 350 2.79 339 2.79
 126  0.750  0.563  0.361- 458 1.97 348 2.79 316 2.79
 127  0.750  0.312  0.361- 445 1.97 347 2.79 359 2.79
 128  0.750  0.063  0.361- 444 1.97 346 2.79 358 2.79
 129  0.417  0.812  0.361- 443 1.97 345 2.79 357 2.79
 130  0.417  0.563  0.361- 442 1.97 344 2.79 356 2.79
 131  0.417  0.312  0.361- 441 1.97 343 2.79 355 2.79
 132  0.417  0.063  0.361- 440 1.97 342 2.79 354 2.79
 133  0.083  0.812  0.361- 439 1.97 353 2.79 341 2.79
 134  0.417  0.188  0.361- 441 1.97 342 2.79 354 2.79
 135  0.083  0.938  0.361- 436 1.97 353 2.79 341 2.79
 136  0.083  0.687  0.361- 439 1.97 352 2.79 340 2.79
 137  0.083  0.437  0.361- 438 1.97 361 2.79 351 2.79
 138  0.833  0.500  0.407- 458 1.97 435 1.97 316 2.79 359 2.79 349 2.88
 139  0.833  0.750  0.407- 446 1.97 434 1.97 339 2.79 316 2.79 362 2.87
 140  0.084  0.062  0.454- 436 1.98 433 2.10 360 2.80 385 2.81 326 2.85 338 2.86
 141  0.083  0.312  0.454- 437 1.98 421 2.10 351 2.80 361 2.80 337 2.85 327 2.89
 142  0.084  0.562  0.454- 438 1.98 413 2.10 328 2.76 352 2.79 340 2.81 317 2.89
 143  0.084  0.812  0.454- 439 1.98 412 2.11 330 2.77 353 2.80 341 2.81 336 2.87
 144  0.417  0.062  0.455- 416 1.96 440 2.00 354 2.82 342 2.83 320 2.84 329 2.84
 145  0.415  0.311  0.457- 415 1.92 441 2.04 334 2.81 319 2.82 343 2.84 355 2.88
 146  0.416  0.560  0.458- 414 1.97 442 2.02 333 2.73 318 2.74 344 2.88 356 2.90
 147  0.417  0.810  0.455- 443 1.97 424 2.09 321 2.74 331 2.79 357 2.84 345 2.84
 148  0.750  0.065  0.453- 444 2.00 423 2.02 346 2.75 358 2.76 322 2.91 332 2.93
 149  0.747  0.314  0.455- 422 2.00 445 2.02 347 2.74 324 2.82 359 2.83 335 2.92
 150  0.748  0.564  0.454- 432 1.99 458 2.01 348 2.74 323 2.76 316 2.80 349 2.92
 151  0.749  0.813  0.453- 446 1.97 417 2.09 350 2.76 339 2.78 325 2.83 362 2.88
 152  0.250  0.062  0.454- 447 1.98 418 2.11 342 2.80 360 2.81 320 2.84 326 2.88
 153  0.915  0.313  0.547- 429 1.84 409 2.20 335 2.72 337 2.76 363 2.87 381 3.32
 154  0.252  0.314  0.454- 420 1.97 448 2.01 343 2.74 319 2.77 351 2.82 327 2.96
 155  0.252  0.565  0.454- 419 1.99 449 2.01 344 2.74 318 2.77 352 2.80 328 2.93
 156  0.251  0.811  0.455- 450 1.99 425 2.07 321 2.75 330 2.82 345 2.83 353 2.85
 157  0.833  0.250  0.407- 445 1.97 456 1.97 359 2.79 358 2.79 335 2.88
 158  0.584  0.315  0.454- 428 1.95 452 2.02 347 2.75 355 2.78 334 2.86 324 2.87
 159  0.833  0.000  0.407- 444 1.97 455 1.97 358 2.79 339 2.79 332 2.96
 160  0.500  0.500  0.407- 453 1.97 442 1.97 355 2.79 356 2.79 333 2.80
 161  0.083  0.188  0.361- 437 1.97 385 2.79 360 2.79
 162  0.000  0.000  0.407- 455 1.97 436 1.97 385 2.79 341 2.79 338 2.96
 163  0.000  0.250  0.407- 456 1.97 437 1.97 361 2.79 385 2.79 337 2.95
 164  0.000  0.500  0.407- 435 1.97 438 1.97 340 2.79 361 2.79 317 2.99
 165  0.000  0.750  0.407- 434 1.97 439 1.97 341 2.79 340 2.79 336 2.99
 166  0.333  0.000  0.407- 440 1.97 447 1.97 342 2.79 345 2.79 320 2.96
 167  0.333  0.250  0.407- 441 1.97 448 1.97 343 2.79 342 2.79 319 2.88
 168  0.333  0.500  0.407- 442 1.97 449 1.97 343 2.79 344 2.79 318 2.82
 169  0.333  0.750  0.407- 443 1.97 450 1.97 345 2.79 344 2.79 321 2.84
 170  0.667  0.000  0.407- 444 1.97 451 1.97 346 2.79 350 2.79 322 2.96
 171  0.667  0.250  0.407- 445 1.97 452 1.97 347 2.79 346 2.79 324 2.88
 172  0.667  0.500  0.407- 458 1.97 453 1.97 347 2.79 348 2.79 323 2.81
 173  0.667  0.750  0.407- 446 1.97 454 1.97 350 2.79 348 2.79 325 2.85
 174  0.167  0.000  0.407- 447 1.97 436 1.97 360 2.79 353 2.79 326 2.99
 175  0.167  0.250  0.407- 448 1.97 437 1.97 351 2.79 360 2.79 327 2.98
 176  0.167  0.500  0.407- 449 1.97 438 1.97 351 2.79 352 2.79 328 2.85
 177  0.167  0.750  0.407- 450 1.97 439 1.97 353 2.79 352 2.79 330 2.89
 178  0.500  0.000  0.407- 451 1.97 440 1.97 354 2.79 357 2.79 329 2.96
 179  0.500  0.250  0.407- 452 1.97 441 1.97 355 2.79 354 2.79 334 2.85
 180  0.500  0.750  0.407- 454 1.97 443 1.97 357 2.79 356 2.79 331 2.91
 181  0.167  0.124  0.499- 418 1.96 433 1.99 326 2.76 360 2.77 327 2.77
 182  0.917  0.067  0.550- 430 1.85 387 2.23 332 2.80 338 2.81 383 2.95 315 3.00
 183  0.168  0.873  0.500- 425 1.93 412 2.02 330 2.72 353 2.78 326 2.86 374 3.54
 184  0.252  0.188  0.547- 418 1.87 395 2.13 319 2.64 327 2.72 367 3.14 377 3.36
 185  0.749  0.934  0.548- 417 1.82 402 2.27 322 2.76 332 2.80 379 2.91 364 3.20
 186  0.752  0.680  0.553- 400 1.96 432 1.97 380 2.66 365 2.82 362 2.96 325 3.01
 187  0.752  0.435  0.549- 422 1.93 399 2.05 370 2.73 349 2.82 323 2.84 363 2.94
 188  0.423  0.444  0.545- 408 1.88 415 2.06 333 2.61 318 2.84 375 2.88 369 3.13
 189  0.423  0.688  0.547- 414 1.95 398 2.00 331 2.67 386 2.76 321 2.88 368 2.94
 190  0.749  0.183  0.551- 423 1.94 401 1.95 324 2.81 335 2.91 371 2.99 383 3.04
 191  0.416  0.937  0.546- 424 1.85 396 2.25 320 2.71 329 2.72 372 2.89 384 3.07
 192  0.084  0.939  0.545- 412 1.84 406 2.18 326 2.66 338 2.68 374 3.26 366 3.38
 193  0.416  0.191  0.546- 397 1.85 416 2.03 319 2.72 334 2.73 376 3.10 367 3.25
 194  0.087  0.690  0.545- 413 1.86 405 2.22 330 2.62 336 2.72 373 2.79
 195  0.082  0.439  0.545- 421 1.84 404 2.22 317 2.65 328 2.69 378 3.08 381 3.35
 196  0.083  0.189  0.545- 433 1.85 403 2.19 327 2.65 337 2.67 315 3.17 377 3.39
 197  0.499  0.126  0.500- 416 1.98 426 1.99 334 2.73 354 2.78 329 2.82 376 3.20
 198  1.000  0.501  0.594- 457 1.95 404 1.96 317 2.63 381 2.95 382 2.96
 199  1.000  0.753  0.592- 405 1.95 407 1.96 336 2.57 366 2.81 382 3.21
 200  0.335  0.254  0.593- 397 1.90 395 2.06 369 2.67 319 2.70 367 3.07
 201  0.334  1.000  0.592- 396 2.00 394 2.04 320 2.59 372 2.72 367 2.76
 202  0.999  0.999  0.592- 387 1.96 406 2.02 338 2.59 315 2.85 366 2.94
 203  0.001  0.250  0.591- 409 1.95 403 1.99 337 2.57 315 2.91 381 2.92
 204  0.333  0.496  0.591- 408 1.85 390 2.15 318 2.70 369 2.75 368 2.86
 205  0.336  0.741  0.590- 398 1.92 391 2.07 368 2.60 321 2.68 372 3.11
 206  0.663  0.248  0.591- 392 1.89 401 2.14 324 2.63 370 2.79 371 2.83
 207  0.667  0.002  0.592- 393 2.01 402 2.01 322 2.59 379 2.73 371 2.80
 208  0.666  0.742  0.590- 388 1.96 400 2.04 380 2.57 325 2.65 379 3.16
 209  0.667  0.494  0.591- 389 1.81 399 2.13 323 2.72 370 2.73 380 2.95
 210  0.167  0.999  0.593- 394 1.98 406 2.02 326 2.58 377 2.90 374 2.90
 211  0.168  0.249  0.593- 395 1.94 403 2.04 327 2.60 378 2.77 377 2.97
 212  0.171  0.750  0.595- 391 1.86 405 2.15 330 2.76 373 2.76 374 2.84
 213  0.248  0.436  0.549- 390 1.94 420 1.98 369 2.65 318 2.82 328 2.84 378 3.04
 214  0.166  0.503  0.587- 390 1.83 404 2.05 328 2.56 373 2.81 378 2.99
 215  0.249  0.683  0.552- 391 1.96 419 1.97 368 2.73 373 2.88 330 2.91 321 2.94
 216  0.581  0.186  0.549- 426 1.93 392 1.98 334 2.74 324 2.83 376 2.93 371 3.10
 217  0.915  0.814  0.547- 411 1.84 407 2.19 362 2.69 336 2.73 364 3.23 366 3.27
 218  0.917  0.564  0.547- 410 1.85 457 2.21 317 2.69 349 2.73 365 2.86
 219  0.581  0.560  0.549- 389 1.89 427 2.09 386 2.69 333 2.75 380 2.83 323 2.86
 220  0.586  0.815  0.551- 431 1.91 388 2.07 325 2.75 331 2.81 379 2.94 384 3.02
 221  0.583  0.312  0.545- 428 1.89 392 2.11 334 2.73 324 2.76 375 2.77 370 2.88
 222  0.583  0.062  0.546- 426 1.84 393 2.21 329 2.70 322 2.70 376 2.97 371 3.13
 223  0.253  0.812  0.551- 391 1.82 425 2.07 321 2.78 330 2.88 372 2.88 374 3.19
 224  0.252  0.559  0.544- 419 1.91 390 2.04 318 2.63 328 2.78 368 2.88 373 3.19
 225  0.249  0.314  0.546- 420 1.85 395 2.30 369 2.65 327 2.73 319 2.73 378 3.05
 226  0.251  0.062  0.547- 418 1.84 394 2.24 320 2.68 326 2.72 367 3.03 377 3.29
 227  0.748  0.808  0.546- 400 1.83 417 2.03 325 2.67 362 2.74 379 3.15 364 3.31
 228  0.747  0.558  0.544- 432 1.95 399 1.98 323 2.61 349 2.78 380 2.85 365 3.21
 229  0.414  0.812  0.548- 398 1.96 424 1.96 321 2.72 331 2.77 372 2.93 384 3.12
 230  0.750  0.059  0.544- 423 1.84 402 2.22 332 2.65 322 2.65 383 3.20 371 3.21
 231  0.748  0.311  0.548- 422 1.97 401 1.99 370 2.66 324 2.73 335 2.83 363 3.03
 232  0.416  0.320  0.553- 397 1.96 415 1.98 375 2.66 369 2.73 319 2.99 334 2.99
 233  0.420  0.565  0.555- 408 1.90 414 2.12 386 2.66 368 2.71 333 2.92 318 3.04
 234  0.416  0.065  0.547- 416 1.84 396 2.25 320 2.74 329 2.77 376 2.94 367 3.08
 235  0.085  0.813  0.548- 412 1.85 405 2.18 330 2.68 336 2.73 374 3.15 366 3.29
 236  0.083  0.564  0.546- 413 1.84 404 2.22 317 2.69 328 2.74 373 2.82
 237  0.086  0.314  0.547- 421 1.84 403 2.23 327 2.68 337 2.77 378 2.89 381 3.33
 238  0.082  0.063  0.548- 433 1.84 406 2.21 338 2.71 326 2.72 315 3.06 377 3.29
 239  0.916  0.940  0.545- 411 1.87 387 2.06 332 2.64 338 2.67 364 3.34 366 3.37
 240  0.913  0.689  0.545- 410 1.85 407 2.24 362 2.63 336 2.72 365 2.83
 241  0.584  0.938  0.546- 431 1.84 393 2.25 322 2.68 329 2.70 379 2.95 384 3.06
 242  0.916  0.191  0.545- 430 1.85 409 2.17 335 2.64 337 2.67 383 3.13 315 3.22
 243  0.916  0.438  0.546- 429 1.85 457 2.23 349 2.68 317 2.70 363 2.95 381 3.35
 244  0.577  0.436  0.552- 389 1.95 428 2.05 375 2.63 333 2.75 370 2.94 323 3.01
 245  0.580  0.686  0.547- 427 1.92 388 2.13 386 2.66 331 2.71 380 2.82 325 2.84
 246  0.251  0.937  0.545- 425 1.83 394 2.22 320 2.68 326 2.73 372 2.92 374 3.30
 247  0.498  0.504  0.609- 408 2.10  11 2.16 389 2.25 386 2.73 375 3.00 333 3.26
 248  0.499  0.253  0.590- 397 1.99 392 2.04 334 2.65 375 2.65 376 2.96
 249  0.500  0.000  0.591- 396 2.00 393 2.01 329 2.57 376 2.76 384 2.80
 250  0.754  0.693  0.658-  28 2.05  15 2.11 400 2.41 365 2.99 380 3.19
 251  0.749  0.937  0.640- 402 1.80 364 2.49 379 2.54
 252  0.253  0.186  0.641- 395 1.74 367 2.52 377 2.55
 253  0.746  0.195  0.647- 401 1.98   3 2.07 371 2.65 383 2.86
 254  0.756  0.437  0.639- 399 1.97  14 2.01 363 2.60 370 2.82
 255  0.418  0.935  0.640- 396 1.80 384 2.53 372 2.58
 256  0.421  0.676  0.634- 398 2.03  42 2.03 386 2.56 368 2.63
 257  0.591  0.810  0.646- 388 1.94  17 2.09 379 2.65 384 2.83
 258  0.917  0.061  0.645- 459 0.96 387 2.00 383 2.58 315 2.60
 259  0.912  0.562  0.642- 457 1.79 382 2.47 365 2.54
 260  0.915  0.313  0.639- 409 1.80 381 2.50 363 2.52
 261  0.914  0.812  0.642- 407 1.78 364 2.50 366 2.52
 262  0.582  0.066  0.640- 393 1.79 371 2.51 376 2.52
 263  0.583  0.320  0.634- 392 1.96  27 2.04 375 2.53 370 2.67
 264  0.591  0.565  0.640- 389 1.97   2 2.08 380 2.63 386 2.82
 265  0.247  0.574  0.629- 390 1.99  45 2.03 373 2.54 368 2.55
 266  0.262  0.799  0.646- 391 1.96   4 2.06 372 2.79 374 2.95
 267  0.249  0.316  0.641- 395 1.94  35 2.06 378 2.58 369 2.65
 268  0.251  0.059  0.642- 394 1.79 367 2.49 377 2.50
 269  0.917  0.563  0.361- 435 1.97 340 2.79 316 2.79
 270  0.499  0.374  0.500- 415 1.97 428 1.99 355 2.78 333 2.81 334 2.82 375 2.86
 271  0.500  0.873  0.501- 424 1.98 431 1.99 331 2.69 329 2.81 357 2.82 384 3.26
 272  0.500  0.621  0.500- 414 1.98 427 1.98 333 2.70 356 2.79 386 2.82 331 2.94
 273  0.832  0.623  0.500- 432 1.90 410 2.05 349 2.75 316 2.79 362 2.87 365 3.10
 274  0.833  0.875  0.499- 417 1.95 411 2.01 339 2.75 362 2.75 332 2.81
 275  0.832  0.373  0.500- 422 1.90 429 2.05 335 2.77 359 2.78 349 2.83 363 3.13
 276  0.833  0.125  0.500- 423 1.96 430 2.01 335 2.77 358 2.79 332 2.80 383 3.34
 277  0.167  0.376  0.498- 420 1.90 421 2.02 351 2.72 328 2.76 327 2.87 378 3.30
 278  0.168  0.624  0.500- 419 1.90 413 2.05 328 2.78 352 2.79 330 2.84 373 3.05
 279  0.581  0.439  0.646- 389 2.11  11 2.11  46 2.19 375 2.86 370 3.02
 280  0.580  0.685  0.639- 388 1.87  48 2.11 386 2.62 380 2.78
 281  0.917  0.186  0.639- 409 1.78 383 2.51 315 2.54
 282  0.582  0.936  0.639- 393 1.80 384 2.50 379 2.50
 283  0.830  0.751  0.593- 400 1.87 407 2.10 362 2.71 365 2.80 364 2.86
 284  0.831  0.249  0.591- 401 1.84 409 2.11 335 2.64 363 2.80 383 2.85
 285  0.833  0.504  0.589- 399 1.83 457 2.06 349 2.58 365 2.79 363 2.96
 286  0.834  0.000  0.592- 387 1.99 402 2.01 332 2.58 383 2.82 364 2.93
 287  0.501  0.757  0.593- 388 1.98 398 2.02 331 2.67 384 2.73 386 2.93
 288  0.418  0.065  0.640- 396 1.80 367 2.51 376 2.54
 289  0.427  0.305  0.655-  37 2.13  22 2.15 397 2.31 375 2.92 369 3.40
 290  0.412  0.813  0.639- 398 1.94  23 2.08 372 2.60 384 2.69
 291  0.397  0.551  0.652-  26 2.11  19 2.11 408 2.16 368 2.79 386 3.48
 292  0.752  0.571  0.634- 399 1.92  15 2.09 365 2.59 380 2.67
 293  0.741  0.810  0.640- 400 1.98  28 2.05 379 2.59 364 2.66
 294  0.746  0.313  0.640- 401 2.00   3 2.06 370 2.62 363 2.74
 295  0.751  0.068  0.638- 402 1.79 383 2.49 371 2.49
 296  0.084  0.312  0.641- 403 1.80 381 2.49 378 2.51
 297  0.667  0.874  0.499- 431 1.97 417 2.00 325 2.73 350 2.75 322 2.82 379 3.26
 298  0.088  0.562  0.641- 404 1.80 382 2.47 373 2.54
 299  0.082  0.061  0.641- 406 1.80 377 2.50 315 2.52
 300  0.086  0.437  0.639- 404 1.79 378 2.51 381 2.52
 301  0.083  0.185  0.640- 403 1.79 377 2.50 315 2.53
 302  0.418  0.188  0.640- 397 1.99  22 2.01 376 2.63 367 2.68
 303  0.415  0.419  0.630-  37 2.03 408 2.07 375 2.54 369 2.59
 304  0.083  0.935  0.640- 406 1.80 374 2.48 366 2.49
 305  0.083  0.687  0.639- 405 1.79 382 2.45 373 2.51
 306  0.913  0.437  0.639- 457 1.80 363 2.53 381 2.54
 307  0.916  0.687  0.639- 407 1.80 382 2.46 365 2.50
 308  0.915  0.936  0.640- 387 1.75 364 2.50 366 2.51
 309  0.241  0.442  0.642- 390 1.90   8 2.11 378 2.62 369 2.92
 310  0.256  0.677  0.663-   4 2.06  45 2.11 368 2.98 373 3.15
 311  0.579  0.191  0.644- 392 1.90  25 2.13 376 2.67 371 2.72
 312  0.252  0.930  0.637- 394 1.81 374 2.47 372 2.49
 313  0.084  0.812  0.642- 405 1.79 374 2.48 366 2.51
 314  0.917  0.812  0.361- 434 1.97 341 2.79 339 2.79
 315  0.000  0.123  0.613- 299 2.52 301 2.53 281 2.54 258 2.60 202 2.85 203 2.91 182 3.00 238 3.06
                           196 3.17 242 3.22 406 3.41 409 3.41  72 3.42 403 3.43 387 3.51 430 3.74
 316  0.833  0.625  0.407-  83 2.76 273 2.79  64 2.79 126 2.79 105 2.79 269 2.79  93 2.79 138 2.79
                           139 2.79 150 2.80  53 2.88 458 3.42 446 3.42 435 3.42 434 3.42 432 3.45
 317  1.000  0.501  0.507- 198 2.63 195 2.65 218 2.69 236 2.69 243 2.70  75 2.83  74 2.85  64 2.88
                           142 2.89  61 2.92  84 2.92 164 2.99 410 3.39 413 3.40 429 3.41 421 3.42
 318  0.331  0.499  0.501- 224 2.63  81 2.70 204 2.70  65 2.70 146 2.74 155 2.77 213 2.82 168 2.82
                            80 2.82 188 2.84  58 2.85 233 3.04 408 3.35 449 3.41 419 3.42 415 3.44
 319  0.330  0.248  0.503- 184 2.64 200 2.70 193 2.72 225 2.73  51 2.74  76 2.74 154 2.77 145 2.82
                           167 2.88  68 2.88  81 2.91 232 2.99 397 3.32 418 3.36 420 3.42 448 3.44
 320  0.333  0.001  0.506- 201 2.59 246 2.68 226 2.68 191 2.71 234 2.74  76 2.79 144 2.84 152 2.84
                            78 2.84  89 2.89  56 2.91 166 2.96 416 3.33 425 3.38 418 3.40 424 3.41
 321  0.334  0.751  0.502- 205 2.68 229 2.72 147 2.74  78 2.74 156 2.75  69 2.76 223 2.78  80 2.80
                            57 2.83 169 2.84 189 2.88 215 2.94 391 3.37 398 3.40 414 3.41 424 3.42
 322  0.666  0.000  0.506- 207 2.59 230 2.65 241 2.68 222 2.70 185 2.76  79 2.81 297 2.82  52 2.84
                            92 2.87  86 2.88 148 2.91 170 2.96 417 3.37 426 3.38 423 3.38 431 3.39
 323  0.668  0.500  0.501- 228 2.61  82 2.71  54 2.71 209 2.72 150 2.76  88 2.78  91 2.79 172 2.81
                            90 2.82 187 2.84 219 2.86 244 3.01 389 3.34 422 3.41 458 3.41 432 3.42
 324  0.667  0.248  0.503- 206 2.63  79 2.73 231 2.73  55 2.75 221 2.76  71 2.78 190 2.81 149 2.82
                           216 2.83 158 2.87 171 2.88  82 2.92 426 3.41 401 3.42 423 3.42 428 3.43
 325  0.665  0.752  0.502- 208 2.65 227 2.67  73 2.73 297 2.73 220 2.75  53 2.78  90 2.81 151 2.83
                            87 2.83 245 2.84 173 2.85 186 3.01 400 3.34 431 3.37 427 3.38 454 3.45
 326  0.166  0.001  0.507- 210 2.58 192 2.66 238 2.72 226 2.72 246 2.73 181 2.76 140 2.85 183 2.86
                           152 2.88  60 2.90  89 2.92 174 2.99 425 3.37 433 3.38 418 3.38 412 3.43
 327  0.166  0.248  0.506- 211 2.60 196 2.65 237 2.68 184 2.72 225 2.73 181 2.77  51 2.85 277 2.87
                            62 2.87 141 2.89 154 2.96 175 2.98 420 3.37 433 3.39 418 3.39 421 3.46
 328  0.164  0.500  0.502- 214 2.56 195 2.69 236 2.74 142 2.76 277 2.76 224 2.78 278 2.78  61 2.79
                           213 2.84  65 2.85 176 2.85 155 2.93 390 3.33 421 3.39 413 3.42 419 3.42
 329  0.500  0.999  0.506- 249 2.57 222 2.70 241 2.70 191 2.72 234 2.77 271 2.81 197 2.82 144 2.84
                            86 2.85  56 2.87  92 2.88 178 2.96 424 3.38 416 3.39 431 3.39 426 3.40
 330  0.165  0.752  0.503- 194 2.62 235 2.68 183 2.72 212 2.76 143 2.77  59 2.82 156 2.82 278 2.84
                           223 2.88 177 2.89  69 2.89 215 2.91 391 3.33 412 3.37 413 3.42 419 3.46
 331  0.501  0.753  0.504- 189 2.67 287 2.67 271 2.69 245 2.71  73 2.75 229 2.77 147 2.79 220 2.81
                            87 2.86  57 2.91 180 2.91 272 2.94 431 3.37 398 3.38 424 3.41 427 3.42
 332  0.834  0.000  0.506- 286 2.58 239 2.64 230 2.65 182 2.80 185 2.80 276 2.80 274 2.81  66 2.82
                            52 2.86  70 2.90 148 2.93 159 2.96 417 3.35 423 3.38 411 3.42 430 3.42
 333  0.501  0.500  0.500- 188 2.61  88 2.70 272 2.70 146 2.73 219 2.75 244 2.75  91 2.77 160 2.80
                           270 2.81  58 2.84 233 2.92 247 3.26 453 3.41 428 3.43 442 3.44 427 3.45
 334  0.501  0.248  0.502- 248 2.65  71 2.72 221 2.73 193 2.73 197 2.73 216 2.74  68 2.81 145 2.81
                           270 2.82 179 2.85 158 2.86 232 2.99 397 3.37 426 3.39 428 3.42 452 3.45
 335  0.835  0.249  0.503- 242 2.64 284 2.64 153 2.72 276 2.77 275 2.77  55 2.79  67 2.79  85 2.81
                           231 2.83 157 2.88 190 2.91 149 2.92 401 3.36 430 3.39 429 3.43 422 3.43
 336  0.000  0.751  0.507- 199 2.57 194 2.72 240 2.72 217 2.73 235 2.73  75 2.77  77 2.78 143 2.87
                            63 2.87  83 2.93  59 2.94 165 2.99 413 3.38 411 3.39 410 3.39 412 3.40
 337  0.001  0.250  0.505- 203 2.57 196 2.67 242 2.67 153 2.76  74 2.76 237 2.77  72 2.80 141 2.85
                            67 2.88  62 2.89  85 2.92 163 2.95 421 3.38 429 3.39 430 3.41 433 3.42
 338  0.000  1.000  0.506- 202 2.59 239 2.67 192 2.68 238 2.71  77 2.80  72 2.80 182 2.81  66 2.85
                           140 2.86  60 2.89  70 2.89 162 2.96 412 3.40 433 3.41 411 3.41 430 3.42
 339  0.833  0.875  0.407- 274 2.75  70 2.77 151 2.78 125 2.79 104 2.79 314 2.79 101 2.79 139 2.79
                           159 2.79  63 2.80  52 2.84 446 3.42 434 3.42 444 3.42 455 3.42 417 3.48
 340  0.000  0.625  0.407-  75 2.73 269 2.79  93 2.79 114 2.79 136 2.79 164 2.79 165 2.79  59 2.79
                            83 2.80  64 2.80 142 2.81 435 3.42 434 3.42 438 3.42 439 3.42 413 3.53
 341  0.000  0.875  0.407-  70 2.76  77 2.78  60 2.79 314 2.79 133 2.79 101 2.79 135 2.79 165 2.79
                           162 2.79  63 2.80 143 2.81 434 3.42 439 3.42 455 3.42 436 3.42 411 3.56
 342  0.333  0.125  0.407-  76 2.74 132 2.79 134 2.79 124 2.79 103 2.79 166 2.79 167 2.79  68 2.79
                           152 2.80  51 2.81 144 2.83 440 3.42 441 3.42 447 3.42 448 3.42 416 3.48
 343  0.333  0.375  0.407- 154 2.74  58 2.77 110 2.79 131 2.79 111 2.79 123 2.79 167 2.79 168 2.79
                            65 2.81 145 2.84  81 2.88 441 3.42 442 3.42 448 3.42 449 3.42 415 3.43
 344  0.333  0.625  0.407- 155 2.74  57 2.79 130 2.79 109 2.79 122 2.79 102 2.79 168 2.79 169 2.79
                            69 2.80 146 2.88  80 2.91 442 3.42 443 3.42 449 3.42 450 3.42 414 3.45
 345  0.333  0.875  0.407-  78 2.77  89 2.78  56 2.79 129 2.79 121 2.79 108 2.79 100 2.79 169 2.79
                           166 2.79 156 2.83 147 2.84 443 3.42 450 3.42 440 3.42 447 3.42 425 3.49
 346  0.667  0.125  0.407- 148 2.75  79 2.77 128 2.79 107 2.79 120 2.79  99 2.79 170 2.79 171 2.79
                            92 2.79  71 2.85  55 2.86 444 3.42 445 3.42 451 3.42 452 3.42 426 3.53
 347  0.667  0.375  0.407- 149 2.74 158 2.75 106 2.79 127 2.79  98 2.79 119 2.79 171 2.79 172 2.79
                            54 2.82  88 2.86  82 2.88 445 3.42 458 3.42 453 3.42 452 3.42 428 3.47
 348  0.667  0.625  0.407- 150 2.74  91 2.79 126 2.79 105 2.79 118 2.79  97 2.79 172 2.79 173 2.79
                            87 2.80  53 2.85  90 2.88 458 3.42 446 3.42 453 3.42 454 3.42 427 3.43
 349  0.836  0.500  0.503- 285 2.58 243 2.68 218 2.73 273 2.75 228 2.78  64 2.78  84 2.78 187 2.82
                           275 2.83  54 2.84 138 2.88 150 2.92 399 3.36 432 3.41 422 3.41 429 3.41
 350  0.667  0.875  0.407- 297 2.75 151 2.76 125 2.79 104 2.79 117 2.79  96 2.79 173 2.79 170 2.79
                            86 2.81  52 2.82  73 2.85 446 3.42 454 3.42 444 3.42 451 3.42 417 3.50
 351  0.167  0.375  0.407- 277 2.72  61 2.78 111 2.79 137 2.79 123 2.79 113 2.79 176 2.79 175 2.79
                           141 2.80 154 2.82  65 2.85 448 3.42 449 3.42 437 3.42 438 3.42 420 3.44
 352  0.167  0.625  0.407-  59 2.75 142 2.79 278 2.79 122 2.79 102 2.79 114 2.79 136 2.79 176 2.79
                           177 2.79 155 2.80  69 2.87 449 3.42 450 3.42 438 3.42 439 3.42 419 3.46
 353  0.167  0.875  0.407-  60 2.77  89 2.78 183 2.78 121 2.79 133 2.79 100 2.79 135 2.79 177 2.79
                           174 2.79 143 2.80 156 2.85 450 3.42 439 3.42 447 3.42 436 3.42 425 3.47
 354  0.500  0.125  0.407- 197 2.78  68 2.78  92 2.79 120 2.79  99 2.79 132 2.79 134 2.79 178 2.79
                           179 2.79 144 2.82  71 2.83 451 3.42 452 3.42 440 3.42 441 3.42 416 3.50
 355  0.500  0.375  0.407-  58 2.78 270 2.78 158 2.78  98 2.79 119 2.79 110 2.79 131 2.79 179 2.79
                           160 2.79  88 2.84 145 2.88 452 3.42 453 3.42 441 3.42 442 3.42 415 3.44
 356  0.500  0.625  0.407-  57 2.77  87 2.78 118 2.79  97 2.79 130 2.79 109 2.79 160 2.79 180 2.79
                           272 2.79  91 2.83 146 2.90 453 3.42 454 3.42 442 3.42 443 3.42 414 3.44
 357  0.500  0.875  0.407-  56 2.77  86 2.79 117 2.79 129 2.79  96 2.79 108 2.79 180 2.79 178 2.79
                           271 2.82 147 2.84  73 2.84 454 3.42 443 3.42 451 3.42 440 3.42 424 3.51
 358  0.833  0.125  0.407-  85 2.76 148 2.76 276 2.79 128 2.79 107 2.79 116 2.79  95 2.79 159 2.79
                           157 2.79  66 2.82  55 2.85 444 3.42 445 3.42 455 3.42 456 3.42 423 3.52
 359  0.833  0.375  0.407-  84 2.77 275 2.78 106 2.79 127 2.79  94 2.79 115 2.79 157 2.79 138 2.79
                            67 2.79 149 2.83  54 2.85 445 3.42 458 3.42 456 3.42 435 3.42 422 3.45
 360  0.167  0.125  0.407-  62 2.76 181 2.77 124 2.79 103 2.79 112 2.79 161 2.79 174 2.79 175 2.79
                           140 2.80  51 2.81 152 2.81 447 3.42 448 3.42 436 3.42 437 3.42 433 3.57
 361  0.000  0.375  0.407-  74 2.74  61 2.76  94 2.79 115 2.79 137 2.79 113 2.79 163 2.79 164 2.79
                            84 2.80 141 2.80  67 2.81 435 3.42 456 3.42 438 3.42 437 3.42 429 3.53
 362  0.836  0.752  0.503- 240 2.63 217 2.69 283 2.71 227 2.74 274 2.75  63 2.76  83 2.80  53 2.84
                           139 2.87 273 2.87 151 2.88 186 2.96 400 3.30 411 3.36 410 3.43 434 3.45
 363  0.837  0.373  0.604- 260 2.52 306 2.53 254 2.60 294 2.74 284 2.80 153 2.87 187 2.94 243 2.95
                           285 2.96 231 3.03 275 3.13 409 3.39 401 3.42 457 3.45 399 3.47 429 3.53
 364  0.832  0.874  0.619- 251 2.49 308 2.50 261 2.50 293 2.66 283 2.86 286 2.93 185 3.20 217 3.23
                           227 3.31 239 3.34 387 3.39 400 3.42 407 3.45 402 3.46 411 3.95 379 3.95
 365  0.839  0.627  0.603- 307 2.50 259 2.54 292 2.59 285 2.79 283 2.80 186 2.82 240 2.83 218 2.86
                           250 2.99 273 3.10 228 3.21 407 3.34 457 3.38 399 3.41 410 3.46 400 3.51
 366  1.000  0.873  0.622- 304 2.49 313 2.51 308 2.51 261 2.52 199 2.81 202 2.94 217 3.27 235 3.29
                           407 3.37 239 3.37 192 3.38 405 3.38 387 3.39 406 3.47 374 3.94 411 3.97
 367  0.331  0.120  0.613- 268 2.49 288 2.51 252 2.52 302 2.68 201 2.76 226 3.03 200 3.07 234 3.08
                           184 3.14 193 3.25 394 3.36 396 3.37 395 3.44  76 3.45 397 3.55 418 3.75
 368  0.334  0.624  0.595- 265 2.55 205 2.60 256 2.63 233 2.71 215 2.73  80 2.75 291 2.79 204 2.86
                           224 2.88 189 2.94 310 2.98 408 3.37 398 3.42 414 3.44 419 3.45 391 3.50
 369  0.326  0.374  0.593- 303 2.59 213 2.65 225 2.65 267 2.65 200 2.67  81 2.70 232 2.73 204 2.75
                           309 2.92 188 3.13 420 3.29  37 3.38 395 3.40 289 3.40 390 3.41 408 3.43
 370  0.671  0.372  0.594- 294 2.62 231 2.66 263 2.67 209 2.73 187 2.73  82 2.74 206 2.79 254 2.82
                           221 2.88 244 2.94 279 3.02 422 3.35 401 3.39 428 3.44 389 3.45 392 3.46
 371  0.666  0.124  0.613- 295 2.49 262 2.51 253 2.65 311 2.72 207 2.80 206 2.83 190 2.99 216 3.10
                           222 3.13 230 3.21 393 3.38 402 3.40 392 3.40  79 3.40 401 3.49 426 3.79
 372  0.334  0.879  0.603- 312 2.49 255 2.58 290 2.60 201 2.72 266 2.79 223 2.88 191 2.89 246 2.92
                           229 2.93 205 3.11  78 3.11 394 3.33 396 3.34 398 3.47 391 3.48 424 3.55
 373  0.159  0.627  0.601- 305 2.51 298 2.54 265 2.54 212 2.76 194 2.79 214 2.81 236 2.82 215 2.88
                           278 3.05 310 3.15 224 3.19 405 3.33 404 3.37 413 3.41 390 3.50 391 3.53
 374  0.166  0.873  0.618- 312 2.47 313 2.48 304 2.48 212 2.84 210 2.90 266 2.95 235 3.15 223 3.19
                           192 3.26 246 3.30 405 3.43 394 3.43 391 3.43 406 3.44 183 3.54 412 3.87
 375  0.502  0.372  0.595- 263 2.53 303 2.54 244 2.63 248 2.65 232 2.66 221 2.77 270 2.86 279 2.86
                           188 2.88 289 2.92 247 3.00 392 3.39 428 3.39 397 3.43 415 3.48 408 3.53
 376  0.500  0.122  0.606- 262 2.52 288 2.54 302 2.63 311 2.67 249 2.76 216 2.93 234 2.94 248 2.96
                           222 2.97 193 3.10 197 3.20 393 3.33 396 3.36 392 3.44 397 3.51 426 3.63
 377  0.167  0.122  0.622- 301 2.50 299 2.50 268 2.50 252 2.55 210 2.90 211 2.97 226 3.29 238 3.29
                           184 3.36 196 3.39 395 3.42 394 3.44 406 3.45 403 3.49 367 3.90 315 3.96
 378  0.163  0.372  0.608- 296 2.51 300 2.51 267 2.58 309 2.62 211 2.77 237 2.89 214 2.99 213 3.04
                           225 3.05 195 3.08 277 3.30 403 3.34 390 3.41 395 3.46 404 3.47 421 3.61
 379  0.666  0.881  0.607- 282 2.50 251 2.54 293 2.59 257 2.65 207 2.73 185 2.91 220 2.94 241 2.95
                           227 3.15 208 3.16 297 3.26 393 3.32 402 3.35 388 3.51 400 3.56 431 3.61
 380  0.666  0.626  0.594- 208 2.57 264 2.63 186 2.66 292 2.67  90 2.72 280 2.78 245 2.82 219 2.83
                           228 2.85 209 2.95 250 3.19 389 3.32 388 3.37 427 3.40 432 3.41  15 3.41
 381  0.000  0.375  0.622- 296 2.49 260 2.50 300 2.52 306 2.54 203 2.92 198 2.95 153 3.32 237 3.33
                           243 3.35 195 3.35 409 3.44 404 3.45 457 3.46 403 3.48 378 3.89 363 3.91
 382  1.000  0.622  0.636- 305 2.45 307 2.46 298 2.47 259 2.47 198 2.96 199 3.21 457 3.46 404 3.47
                           405 3.59 407 3.61 373 3.91 365 3.92 317 4.71 336 4.82
 383  0.836  0.124  0.611- 295 2.49 281 2.51 258 2.58 286 2.82 284 2.85 253 2.86 182 2.95 190 3.04
                           242 3.13 230 3.20 276 3.34 402 3.40 401 3.42 409 3.43 387 3.50 430 3.69
 384  0.501  0.877  0.609- 282 2.50 255 2.53 290 2.69 287 2.73 249 2.80 257 2.83 220 3.02 241 3.06
                           191 3.07 229 3.12 271 3.26 396 3.39 393 3.40 388 3.47 398 3.50 431 3.68
 385  0.000  0.125  0.407-  72 2.76  62 2.78  85 2.78 116 2.79  95 2.79 112 2.79 161 2.79 162 2.79
                           163 2.79 140 2.81  66 2.83 455 3.42 456 3.42 436 3.42 437 3.42 430 3.56
 386  0.504  0.625  0.594- 256 2.56 280 2.62 245 2.66 233 2.66 219 2.69 247 2.73 189 2.76 272 2.82
                           264 2.82 287 2.93 427 3.37 388 3.38 389 3.44 414 3.46  48 3.47 398 3.48
 387  0.917  0.994  0.601- 308 1.75 202 1.96 286 1.99 258 2.00 239 2.06 182 2.23 364 3.39 366 3.39
                           332 3.46 338 3.47 383 3.50 315 3.51
 388  0.584  0.750  0.600- 280 1.87 257 1.94 208 1.96 287 1.98 220 2.07 245 2.13 380 3.37 386 3.38
                           384 3.47 331 3.49 325 3.50 379 3.51
 389  0.591  0.501  0.594- 209 1.81 219 1.89 244 1.95 264 1.97 279 2.11 247 2.25  11 3.13 380 3.32
                           323 3.34 386 3.44 370 3.45 333 3.51 375 3.58
 390  0.242  0.498  0.594- 214 1.83 309 1.90 213 1.94 265 1.99 224 2.04 204 2.15 328 3.33 369 3.41
                           378 3.41 318 3.49 373 3.50 368 3.56
 391  0.249  0.753  0.592- 223 1.82 212 1.86 266 1.96 215 1.96 205 2.07 330 3.33 321 3.37 374 3.43
                           372 3.48 368 3.50 373 3.53
 392  0.584  0.247  0.597- 206 1.89 311 1.90 263 1.96 216 1.98 248 2.04 221 2.11 375 3.39 371 3.40
                           324 3.43 376 3.44 334 3.46 370 3.46
 393  0.583  0.002  0.604- 262 1.79 282 1.80 249 2.01 207 2.01 222 2.21 241 2.25 379 3.32 376 3.33
                           371 3.38 384 3.40 322 3.55 329 3.55
 394  0.249  0.998  0.604- 268 1.79 312 1.81 210 1.98 201 2.04 246 2.22 226 2.24 372 3.33 367 3.36
                           374 3.43 377 3.44 326 3.53 320 3.56
 395  0.249  0.246  0.604- 252 1.74 211 1.94 267 1.94 200 2.06 184 2.13 225 2.30 369 3.40 377 3.42
                           367 3.44 378 3.46 327 3.52 319 3.58
 396  0.417  0.000  0.605- 255 1.80 288 1.80 249 2.00 201 2.00 191 2.25 234 2.25 372 3.34 376 3.36
                           367 3.37 384 3.39 329 3.57 320 3.57
 397  0.415  0.249  0.591- 193 1.85 200 1.90 232 1.96 248 1.99 302 1.99 289 2.31 319 3.32 334 3.37
                           375 3.43 369 3.49 376 3.51 367 3.55
 398  0.416  0.750  0.594- 205 1.92 290 1.94 229 1.96 189 2.00 287 2.02 256 2.03 331 3.38 321 3.40
                           368 3.42 372 3.47 386 3.48 384 3.50
 399  0.756  0.503  0.596- 285 1.83 292 1.92 254 1.97 228 1.98 187 2.05 209 2.13 349 3.36 365 3.41
                           363 3.47 380 3.49 323 3.52 370 3.55
 400  0.751  0.753  0.590- 227 1.83 283 1.87 186 1.96 293 1.98 208 2.04 250 2.41  28 3.13 362 3.30
                           325 3.34 364 3.42 380 3.47 365 3.51 379 3.56
 401  0.754  0.248  0.594- 284 1.84 190 1.95 253 1.98 231 1.99 294 2.00 206 2.14   3 3.04 335 3.36
                           370 3.39 363 3.42 383 3.42 324 3.42 371 3.49
 402  0.751  0.002  0.604- 295 1.79 251 1.80 286 2.01 207 2.01 230 2.22 185 2.27 379 3.35 371 3.40
                           383 3.40 364 3.46 332 3.55 322 3.56
 403  0.083  0.248  0.603- 301 1.79 296 1.80 203 1.99 211 2.04 196 2.19 237 2.23 378 3.34 315 3.43
                           381 3.48 377 3.49 327 3.52 337 3.53
 404  0.081  0.501  0.603- 300 1.79 298 1.80 198 1.96 214 2.05 236 2.22 195 2.22 373 3.37 381 3.45
                           382 3.47 378 3.47 317 3.47 328 3.60
 405  0.081  0.751  0.603- 313 1.79 305 1.79 199 1.95 212 2.15 235 2.18 194 2.22 373 3.33 366 3.38
                           374 3.43 336 3.47 382 3.59 330 3.60
 406  0.083  0.998  0.603- 304 1.80 299 1.80 202 2.02 210 2.02 192 2.18 238 2.21 315 3.41 374 3.44
                           377 3.45 366 3.47 326 3.51 338 3.52
 407  0.918  0.751  0.603- 261 1.78 307 1.80 199 1.96 283 2.10 217 2.19 240 2.24 365 3.34 366 3.37
                           364 3.45 336 3.49 362 3.60 382 3.61
 408  0.411  0.497  0.593- 204 1.85 188 1.88 233 1.90 303 2.07 247 2.10 291 2.16 318 3.35 368 3.37
                           369 3.43 333 3.50 375 3.53 386 3.59
 409  0.919  0.249  0.602- 281 1.78 260 1.80 203 1.95 284 2.11 242 2.17 153 2.20 363 3.39 315 3.41
                           383 3.43 381 3.44 337 3.49 335 3.59
 410  0.918  0.626  0.506- 218 1.85 240 1.85  75 1.95 273 2.05  83 2.09  64 2.11 317 3.39 336 3.39
                           349 3.42 362 3.43 365 3.46 340 3.54 316 3.59
 411  0.917  0.875  0.506- 217 1.84 239 1.87  77 1.97 274 2.01  63 2.09  70 2.11 362 3.36 336 3.39
                           338 3.41 332 3.42 341 3.56 339 3.58 364 3.95 366 3.97
 412  0.083  0.875  0.507- 192 1.84 235 1.85  77 1.97 183 2.02  60 2.11 143 2.11 330 3.37 336 3.40
                           338 3.40 326 3.43 341 3.58 353 3.59 374 3.87 366 3.97
 413  0.081  0.626  0.506- 236 1.84 194 1.86  75 1.94 278 2.05  59 2.08 142 2.10 336 3.38 317 3.40
                           373 3.41 328 3.42 330 3.42 340 3.53 352 3.58
 414  0.417  0.626  0.501-  57 1.91  80 1.93 189 1.95 146 1.97 272 1.98 233 2.12 321 3.41 356 3.44
                           368 3.44 344 3.45 333 3.45 331 3.46 386 3.46 318 3.49
 415  0.416  0.374  0.501- 145 1.92  81 1.94  58 1.96 270 1.97 232 1.98 188 2.06 343 3.43 318 3.44
                           355 3.44 333 3.45 334 3.46 319 3.48 375 3.48 369 3.49
 416  0.416  0.122  0.503- 234 1.84  76 1.95 144 1.96 197 1.98 193 2.03  68 2.07 320 3.33 329 3.39
                           334 3.46 319 3.47 342 3.48 354 3.50 376 3.69 367 3.87
 417  0.751  0.879  0.503- 185 1.82 274 1.95  52 1.95 297 2.00 227 2.03 151 2.09 332 3.35 322 3.37
                           362 3.48 325 3.48 339 3.48 350 3.50 379 3.72 364 3.99
 418  0.249  0.124  0.507- 226 1.84 184 1.87 181 1.96  76 2.01 152 2.11  51 2.13 319 3.36 326 3.38
                           327 3.39 320 3.40 360 3.57 342 3.60 367 3.75 377 3.97
 419  0.248  0.624  0.503- 278 1.90 224 1.91 215 1.97  69 1.99 155 1.99  80 2.07 318 3.42 328 3.42
                           368 3.45 330 3.46 352 3.46 321 3.48 344 3.51 373 3.63
 420  0.247  0.373  0.503- 225 1.85 277 1.90 154 1.97 213 1.98  65 2.06  81 2.08 369 3.29 327 3.37
                           319 3.42 351 3.44 328 3.45 318 3.46 343 3.53 378 3.72
 421  0.082  0.375  0.506- 237 1.84 195 1.84  74 1.96 277 2.02 141 2.10  61 2.11 337 3.38 328 3.39
                           317 3.42 327 3.46 361 3.55 351 3.58 378 3.61 381 3.99
 422  0.752  0.376  0.503- 275 1.90 187 1.93 231 1.97  54 1.99 149 2.00  82 2.06 370 3.35 349 3.41
                           323 3.41 335 3.43 359 3.45 324 3.49 347 3.52 363 3.64
 423  0.750  0.123  0.505- 230 1.84 190 1.94 276 1.96  79 2.00 148 2.02  55 2.10 322 3.38 332 3.38
                           324 3.42 335 3.46 358 3.52 346 3.54 383 3.78 371 3.81
 424  0.417  0.877  0.504- 191 1.85 229 1.96  78 1.97 271 1.98  56 1.99 147 2.09 329 3.38 320 3.41
                           331 3.41 321 3.42 345 3.51 357 3.51 372 3.55 384 3.74
 425  0.249  0.879  0.502- 246 1.83 183 1.93  89 1.94  78 2.00 223 2.07 156 2.07 326 3.37 320 3.38
                           353 3.47 330 3.47 321 3.48 345 3.49 372 3.63 374 3.99
 426  0.583  0.123  0.505- 222 1.84 216 1.93  79 1.97 197 1.99  92 2.03  71 2.09 322 3.38 334 3.39
                           329 3.40 324 3.41 346 3.53 354 3.53 376 3.63 371 3.79
 427  0.584  0.627  0.501-  87 1.91 245 1.92  90 1.93 272 1.98  91 1.99 219 2.09 386 3.37 325 3.38
                           380 3.40 331 3.42 348 3.43 356 3.44 333 3.45 323 3.48
 428  0.584  0.374  0.502- 221 1.89  82 1.94 158 1.95 270 1.99  88 2.02 244 2.05 375 3.39 334 3.42
                           333 3.43 324 3.43 370 3.44 323 3.46 347 3.47 355 3.47
 429  0.919  0.375  0.506- 153 1.84 243 1.85  74 1.94 275 2.05  84 2.09  67 2.09 337 3.39 317 3.41
                           349 3.41 335 3.43 363 3.53 361 3.53 359 3.58 381 3.99
 430  0.918  0.125  0.506- 182 1.85 242 1.85  72 1.96 276 2.01  66 2.11  85 2.11 335 3.39 337 3.41
                           338 3.42 332 3.42 385 3.56 358 3.59 383 3.69 315 3.74
 431  0.584  0.876  0.506- 241 1.84 220 1.91 297 1.97 271 1.99  86 2.06  73 2.10 325 3.37 331 3.37
                           322 3.39 329 3.39 350 3.55 357 3.57 379 3.61 384 3.68
 432  0.752  0.624  0.503- 273 1.90 228 1.95 186 1.97  53 1.98 150 1.99  90 2.06 380 3.41 349 3.41
                           323 3.42 316 3.45 362 3.46 348 3.51 325 3.51 365 3.66
[...]
  273            m_sumb_d                              0.344544                       42   5
  274          m_sumb_d                              0.000648                          7   4
  275        setdij_                               5.081069                          140   3
  276          m_sumb_d                              1.183553                        140   4
  277        set_dd_magatom                        0.000034                            7   3
  278        set_dd_paw                            0.091443                            7   3
  279          set_rsgf_all                          0.000061                          7   4
  280          m_sumb_d                              0.088501                         49   4
  281        strkin                                0.044898                            7   3
  282          m_sumb_d                              0.005052                          7   4
  283        strelo                                0.052210                            7   3
  284          m_sumb_d                              0.013885                         14   4
  285        strnlr                               67.172848                            7   3
  286          rspher_all                            2.244248                         63   4
  287          phaser                                0.000041                         63   4
  288          rpro_isp                             64.362581                         63   4
  289            fftwav_mpi                           53.398756                     8820   5
  290              fft3d_mpi                            45.761491                   8820   6
  291                fftbrc_mpi                           35.238180                 8820   7
  292                  fftbas_plan_mpi                      35.209926               8820   8
  293                    dfftw_execute                        16.826794            26460   9
  294                    map_forward                          12.841529            17640   9
  295                      map_gather                            0.978375           8820  10
  296                      m_alltoallv_z                         4.608019           8820  10
  297                      map_scatter                           2.438711           8820  10
  298            rpromu                               10.873299                     2205   5
  299              rpromu_gemm                           3.355646                 502740   6
  300              m_sumb_d                              1.447433                   8820   6
  301          m_sumb_d                              0.420867                          7   4
  302        m_sumb_d                              0.061657                           49   3
  303        fft3d_mpi                             4.559160                          497   3
  304          fftbrc_mpi                            4.348682                        497   4
  305            fftbas_plan_mpi                       4.347037                      497   5
  306              dfftw_execute                         0.633668                   1491   6
  307              map_forward                           1.796242                    490   6
  308                map_gather                            0.030751                  245   7
  309                m_alltoallv_z                         1.497442                  245   7
  310                map_scatter                           0.262754                  245   7
  311              map_backward                          1.564326                    504   6
  312                map_gather                            0.183255                  252   7
  313                m_alltoallv_z                         1.309457                  252   7
  314                map_scatter                           0.066537                  252   7
  315        ggaall_grid                           1.318569                            7   3
  316        forhar                                2.817378                            7   3
  317          m_sumb_d                              0.066677                          7   4
  318        strehar                               0.051444                            7   3
  319          m_sumb_d                              0.011922                          7   4
  320        m_bcast_d                             0.007734                           14   3
  321      potlok                               71.862468                             13   2
  322        fft3d_mpi                            25.885858                         2741   3
  323          fftbrc_mpi                           24.844975                       2741   4
  324            fftbas_plan_mpi                      24.835596                     2741   5
  325              dfftw_execute                         3.485119                   8223   6
  326              map_forward                           9.549685                   2754   6
  327                map_gather                            0.215851                 1390   7
  328                m_alltoallv_z                         7.744374                 1390   7
  329                map_scatter                           1.560905                 1390   7
  330              map_backward                          9.888972                   2728   6
  331                map_gather                            1.032551                 1364   7
  332                m_alltoallv_z                         8.467559                 1364   7
  333                map_scatter                           0.361779                 1364   7
  334        ggaall_grid                          18.857491                          237   3
  335        m_sumb_d                              0.426449                         1224   3
  336        fewald                                0.018261                           26   3
  337          rsp                                   0.016670                         26   4
  338          rcp                                   0.001308                         26   4
  339        pothar                                0.023484                           13   3
  340          m_sumb_d                              0.016216                         13   4
  341        m_bcast_d                             0.053984                           13   3
  342      potlok_metagga                        0.000058                             13   2
  343      set_dd_magatom                        0.000008                              7   2
  344      set_dd_paw                            0.160086                             13   2
  345        set_rsgf_all                          0.000022                           13   3
  346        m_sumb_d                              0.155991                           91   3
  347      m_sumb_d                             51.302674                           3518   2
  348      wavpre_noio                           1.626548                              6   2
  349        stufak                                1.545764                            6   3
  350      eddiag                              192.741917                              6   2
  351        overl                                 0.008067                            6   3
  352        redis_proj                            0.807613                           18   3
  353          m_alltoall_d                          0.800549                       2520   4
  354        fftwav_mpi                            5.782217                          840   3
  355          fft3d_mpi                             4.858013                        840   4
  356            fftbrc_mpi                            3.511317                      840   5
  357              fftbas_plan_mpi                       3.508547                    840   6
  358                dfftw_execute                         1.613270                 2520   7
  359                map_forward                           1.403820                 1680   7
  360                  map_gather                            0.133194                840   8
  361                  m_alltoallv_z                         0.448734                840   8
  362                  map_scatter                           0.239896                840   8
  363        hamilt_local                          4.038172                          840   3
  364          vhamil                                1.138554                        840   4
  365          kinhamil                              2.891681                        840   4
  366            fftext_mpi                            2.839678                      840   5
  367              fft3d_mpi                             2.757159                    840   6
  368                fftbrc_mpi                            2.298800                  840   7
  369                  fftbas_plan_mpi                       2.296144                840   8
  370                    dfftw_execute                         1.152989             2520   9
  371                    map_backward                          0.660801             1680   9
  372                      map_gather                            0.133999            840  10
  373                      m_alltoallv_z                         0.395989            840  10
  374                      map_scatter                           0.116941            840  10
  375        redis_pw                              1.589825                          846   3
  376          m_alltoall_d                          1.529616                       2520   4
  377        orth1                                 2.219635                          420   3
  378        m_sumb_d                              1.169180                            6   3
  379        shift_bands_between_low_high          0.000009                            6   3
  380        lincom                                1.783890                            6   3
 
 Flat profile
 ============
 
             routine name                   CPU           calls
 ---------------------------------------------------------------
 edwav                               12098.597147         762
 potlok                               1397.821841         775
 dfftw_execute                         727.030596     1300647
 lincom                                627.008261        2306
 m_alltoall_d                          594.237887     1829380
 m_alltoallv_z                         544.151791      435093
 m_sumb_d                              543.804356      764837
 orth1                                 522.710153      108080
 total_time                            473.159789           1
 fft3d_mpi                             408.864588      433549
 eddiag                                349.134071         394
 fftbas_plan_mpi                       314.751146      433549
 choleski                              261.905034         769
 fftwav_mpi                            257.319547      264638
 eccp                                  221.039313      213360
 ggaall_grid                           168.414570        1006
 map_forward                           163.385280      588926
 map_scatter                           132.263305      435093
 racc0                                 107.706617       53340
 pw_charge                              99.701269       90058
 rpro1                                  84.152946       53340
 map_gather                             82.632201      435093
 vhamil                                 73.999272       55160
 w1_dscal                               53.863949       53340
 orthch                                 31.631588         769
 setdij_                                27.147444         958
 augmentation_charge                    24.904031         769
 m_bcast_z                              12.650326        2381
 force_and_stress                       12.635266           7
 redis_pw                               11.367580      217112
 rpromu                                  8.773144        3185
 fftext_mpi                              8.144287      108500
 redis_proj                              5.318558      168462
 rpromu_gemm                             4.820792      726180
 overl                                   3.372207       54884
 rspher_all                              3.223006          92
 m_bcast_d                               3.091494         805
 soft_charge                             2.786680         769
 forloc                                  2.761900           7
 forhar                                  2.750701           7
 map_backward                            2.402280      278172
 elmin_all                               2.381781           7
 kinhamil                                2.356932       55160
 stufak                                  1.805700           7
 densta                                  1.427276         770
 fftbrc_mpi                              1.376113      433549
 rsp                                     1.057893        1557
 depsum                                  0.860947         769
 hamilt_local                            0.462151       55160
 set_charge                              0.456771         769
 pothar                                  0.449158         775
 set_dd_paw                              0.387914         782
 fft_gq                                  0.215731         769
 rpro_isp                                0.161492          91
 strnlr                                  0.145111           7
 fewald                                  0.094190        1557
 wavpre_noio                             0.080784           6
 rcp                                     0.079286        1557
 strkin                                  0.039846           7
 strehar                                 0.039522           7
 fornlr                                  0.039343           7
 strelo                                  0.038325           7
 redis_pw_all                            0.009170         762
 potlok_metagga                          0.003295         775
 redis_pw_over_bands                     0.002930         775
 fordep                                  0.001913           7
 set_rsgf_all                            0.001590         782
 brgrid                                  0.000822           1
 phaser                                  0.000376         472
 crpa_reader                             0.000295           1
 vectorpot                               0.000156           1
 rotate_active_occupied_orbital          0.000129           7
 proall                                  0.000104           7
 set_dd_magatom                          0.000042          14
 shift_bands_between_low_high            0.000022          13
 ---------------------------------------------------------------
  summed up times    20489.4133231640     
 
 Accumulative profile
 ====================
 
             routine name                   CPU           calls
 ---------------------------------------------------------------
 total_time                          20439.179645           1
 elmin_all                           19490.627759           7
 edwav                               16149.458561         762
 fft3d_mpi                            2326.623624      433549
 potlok                               2117.838624         775
 fftbrc_mpi                           1917.759036      433549
 fftbas_plan_mpi                      1916.382922      433549
 fftwav_mpi                           1667.414558      264638
 orthch                                911.635391         769
 eddiag                                768.316220         394
 dfftw_execute                         727.030596     1300647
 set_charge                            677.245779         769
 soft_charge                           639.379615         769
 map_forward                           639.278033      588926
 lincom                                627.008261        2306
 m_alltoall_d                          594.237887     1829380
 m_alltoallv_z                         544.151791      435093
 m_sumb_d                              543.804356      764837
 orth1                                 522.710153      108080
 fftext_mpi                            367.052448      108500
 redis_pw                              337.486346      217112
 map_backward                          285.556825      278172
 redis_proj                            273.437679      168462
 hamilt_local                          262.062104       55160
 choleski                              261.905034         769
 eccp                                  234.226953      213360
 kinhamil                              187.600682       55160
 ggaall_grid                           168.414570        1006
 map_scatter                           132.263305      435093
 racc0                                 132.256556       53340
 force_and_stress                      120.582012           7
 pw_charge                              99.701269       90058
 rpro1                                  95.168191       53340
 rpro_isp                               93.031419          91
 map_gather                             82.632201      435093
 vhamil                                 73.999272       55160
 strnlr                                 67.172848           7
 w1_dscal                               53.863949       53340
 redis_pw_over_bands                    49.005290         775
 redis_pw_all                           49.002360         762
 setdij_                                36.204395         958
 augmentation_charge                    35.732093         769
 fornlr                                 22.382866           7
 rpromu                                 15.712811        3185
 m_bcast_z                              12.650326        2381
 set_dd_paw                             10.054121         782
 proall                                  7.177816           7
 densta                                  6.080502         770
 rpromu_gemm                             4.820792      726180
 fft_gq                                  4.736236         769
 overl                                   3.372207       54884
 rspher_all                              3.223006          92
 m_bcast_d                               3.091494         805
 forhar                                  2.817378           7
 forloc                                  2.800179           7
 stufak                                  1.805700           7
 depsum                                  1.677299         769
 wavpre_noio                             1.626548           6
 fordep                                  1.505258           7
 fewald                                  1.431252        1557
 pothar                                  1.425459         775
 rsp                                     1.057893        1557
 rcp                                     0.079286        1557
 strelo                                  0.052210           7
 strehar                                 0.051444           7
 strkin                                  0.044898           7
 potlok_metagga                          0.003295         775
 set_rsgf_all                            0.001590         782
 brgrid                                  0.000822           1
 phaser                                  0.000376         472
 crpa_reader                             0.000295           1
 vectorpot                               0.000156           1
 rotate_active_occupied_orbital          0.000129           7
 set_dd_magatom                          0.000042          14
 shift_bands_between_low_high            0.000022          13
 ---------------------------------------------------------------
 
Profiling took  11.958908  3.852156  0.010166  0.009553 seconds
Profiling took  14.268265 seconds
