 vasp.6.3.2 27Jun22 (build Jul 15 2023 01:30:30) gamma-only                     
  
 executed on           IFC15_impi date 2023.09.06  14:32:00
 running   64 mpi-ranks, with    1 threads/rank
 distrk:  each k-point on   64 cores,    1 groups
 distr:  one band on NCORE=   1 cores,   64 groups


--------------------------------------------------------------------------------------------------------


 INCAR:
   ENCUT = 500.000000
   SIGMA = 0.010000
   EDIFF = 1.00e-05
   ALGO = A
   ISMEAR = 0
   NELM = 200
   NSW = 999
   LCHARG = .FALSE.
   LWAVE = .FALSE.
   LREAL = Auto
   IBRION = 5
   POTIM = 0.015
   NFREE = 2
   ISYM = 0
   EDIFFG = -0.05
   GGA = BF
   LUSE_VDW = .TRUE.
   ZAB_VDW = -1.8867
   LBEEFENS = .TRUE.

 POTCAR:    PAW_PBE C 08Apr2002                   
 POTCAR:    PAW_PBE H 15Jun2001                   
 -----------------------------------------------------------------------------
|                                                                             |
|               ----> ADVICE to this user running VASP <----                  |
|                                                                             |
|     You have switched on vdW-DFT.                                           |
|     This routine was written and supplied by Jiri Klimes. We recommend      |
|     that you carefully read and cite the following publications:            |
|       J. Klimes, D.R. Bowler, A. Michelides                                 |
|          J. Phys.: Cond Matt. 22 022201 (2010)                              |
|       J. Klimes, D.R. Bowler, A. Michelides                                 |
|          Phys. Rev. B. 83, 195131 (2011)                                    |
|     and references therein.                                                 |
|                                                                             |
 -----------------------------------------------------------------------------

 POTCAR:    PAW_PBE C 08Apr2002                   
   SHA256 =  253f7b50bb8d59471dbedb8285d89021f4a42ed1a2c5d38a03a736e69125dd95 C/POTCAR              
   COPYR  = (c) Copyright 08Apr2002 Georg Kresse                                                    
   COPYR  = This file is part of the software VASP. Any use, copying, and all other rights are regul
   COPYR  = If you do not have a valid VASP license, you may not use, copy or distribute this file. 
   VRHFIN =C: s2p2                                                                                  
   LEXCH  = PE                                                                                      
   EATOM  =   147.1560 eV,   10.8157 Ry                                                             
                                                                                                    
   TITEL  = PAW_PBE C 08Apr2002                                                                     
   LULTRA =        F    use ultrasoft PP ?                                                          
   IUNSCR =        1    unscreen: 0-lin 1-nonlin 2-no                                               
   RPACOR =    1.200    partial core radius                                                         
   POMASS =   12.011; ZVAL   =    4.000    mass and valenz                                          
   RCORE  =    1.500    outmost cutoff radius                                                       
   RWIGS  =    1.630; RWIGS  =    0.863    wigner-seitz radius (au A)                               
   ENMAX  =  400.000; ENMIN  =  300.000 eV                                                          
   ICORE  =        2    local potential                                                             
   LCOR   =        T    correct aug charges                                                         
   LPAW   =        T    paw PP                                                                      
   EAUG   =  644.873                                                                                
   DEXC   =    0.000                                                                                
   RMAX   =    1.529    core radius for proj-oper                                                   
   RAUG   =    1.300    factor for augmentation sphere                                              
   RDEP   =    1.501    radius for radial grids                                                     
   RDEPT  =    1.300    core radius for aug-charge                                                  
                                                                                                    
   Atomic configuration                                                                             
    4 entries                                                                                       
     n  l   j            E        occ.                                                              
     1  0  0.50      -273.3789   2.0000                                                             
     2  0  0.50       -13.7508   2.0000                                                             
     2  1  0.50        -5.2854   2.0000                                                             
     3  2  1.50        -5.4423   0.0000                                                             
   Description                                                                                      
     l       E           TYP  RCUT    TYP  RCUT                                                     
     0    -13.7508458     23  1.200                                                                 
     0     -8.2022199     23  1.200                                                                 
     1     -5.2854383     23  1.500                                                                 
     1     34.0145650     23  1.500                                                                 
     2     -5.4423304      7  1.500                                                                 
  local pseudopotential read in
  partial core-charges read in
  partial kinetic energy density read in
  atomic valenz-charges read in
  non local Contribution for L=           0  read in
    real space projection operators read in
  non local Contribution for L=           0  read in
    real space projection operators read in
  non local Contribution for L=           1  read in
    real space projection operators read in
  non local Contribution for L=           1  read in
    real space projection operators read in
    PAW grid and wavefunctions read in
 
   number of l-projection  operators is LMAX  =           4
   number of lm-projection operators is LMMAX =           8
 
 POTCAR:    PAW_PBE H 15Jun2001                   
   SHA256 =  030f79b5d3ab3cf0e668861823c8fb652ff669f3e15e46930bd03bfd63a607b6 H/POTCAR              
   COPYR  = (c) Copyright 15Jun2001 Georg Kresse                                                    
   COPYR  = This file is part of the software VASP. Any use, copying, and all other rights are regul
   COPYR  = If you do not have a valid VASP license, you may not use, copy or distribute this file. 
   VRHFIN =H: ultrasoft test                                                                        
   LEXCH  = PE                                                                                      
   EATOM  =    12.4884 eV,    0.9179 Ry                                                             
                                                                                                    
   TITEL  = PAW_PBE H 15Jun2001                                                                     
   LULTRA =        F    use ultrasoft PP ?                                                          
   IUNSCR =        0    unscreen: 0-lin 1-nonlin 2-no                                               
   RPACOR =    0.000    partial core radius                                                         
   POMASS =    1.000; ZVAL   =    1.000    mass and valenz                                          
   RCORE  =    1.100    outmost cutoff radius                                                       
   RWIGS  =    0.700; RWIGS  =    0.370    wigner-seitz radius (au A)                               
   ENMAX  =  250.000; ENMIN  =  200.000 eV                                                          
   RCLOC  =    0.701    cutoff for local pot                                                        
   LCOR   =        T    correct aug charges                                                         
   LPAW   =        T    paw PP                                                                      
   EAUG   =  400.000                                                                                
   RMAX   =    1.123    core radius for proj-oper                                                   
   RAUG   =    1.200    factor for augmentation sphere                                              
   RDEP   =    1.112    radius for radial grids                                                     
   RDEPT  =    0.926    core radius for aug-charge                                                  
                                                                                                    
   Atomic configuration                                                                             
    2 entries                                                                                       
     n  l   j            E        occ.                                                              
     1  0  0.50        -6.4927   1.0000                                                             
     2  1  0.50        -3.4015   0.0000                                                             
   Description                                                                                      
     l       E           TYP  RCUT    TYP  RCUT                                                     
     0     -6.4927494     23  1.100                                                                 
     0      6.8029130     23  1.100                                                                 
     1     -4.0817478     23  1.100                                                                 
  local pseudopotential read in
  atomic valenz-charges read in
  non local Contribution for L=           0  read in
    real space projection operators read in
  non local Contribution for L=           0  read in
    real space projection operators read in
  non local Contribution for L=           1  read in
    real space projection operators read in
    PAW grid and wavefunctions read in
 
   number of l-projection  operators is LMAX  =           3
   number of lm-projection operators is LMMAX =           5
 
 -----------------------------------------------------------------------------
|                                                                             |
|               ----> ADVICE to this user running VASP <----                  |
|                                                                             |
|     You have a (more or less) 'small supercell' and for smaller cells       |
|     it is recommended to use the reciprocal-space projection scheme!        |
|     The real-space optimization is not efficient for small cells and it     |
|     is also less accurate ...                                               |
|     Therefore, set LREAL=.FALSE. in the INCAR file.                         |
|                                                                             |
 -----------------------------------------------------------------------------

 Optimization of the real space projectors (new method)

 maximal supplied QI-value         = 25.13
 optimisation between [QCUT,QGAM] = [ 11.31, 22.87] = [ 35.82,146.48] Ry 
 Optimized for a Real-space Cutoff    1.00 Angstroem

   l    n(q)    QCUT    max X(q) W(low)/X(q) W(high)/X(q)  e(spline) 
   0      7    11.310   115.676    0.43E-03    0.13E-02    0.19E-06
   0      7    11.310    87.132    0.43E-03    0.13E-02    0.18E-06
   1      6    11.310     4.429    0.42E-03    0.74E-03    0.11E-06
   1      6    11.310     2.733    0.34E-03    0.55E-03    0.92E-07
 Optimization of the real space projectors (new method)

 maximal supplied QI-value         = 34.20
 optimisation between [QCUT,QGAM] = [ 11.29, 22.57] = [ 35.68,142.71] Ry 
 Optimized for a Real-space Cutoff    1.16 Angstroem

   l    n(q)    QCUT    max X(q) W(low)/X(q) W(high)/X(q)  e(spline) 
   0      8    11.287    19.460    0.40E-03    0.73E-03    0.16E-06
   0      8    11.287    12.209    0.38E-03    0.70E-03    0.15E-06
   1      7    11.287     4.655    0.22E-03    0.25E-04    0.22E-06
 -----------------------------------------------------------------------------
|                                                                             |
|               ----> ADVICE to this user running VASP <----                  |
|                                                                             |
|     You enforced a specific xc type in the INCAR file but a different       |
|     type was found in the POTCAR file.                                      |
|     I HOPE YOU KNOW WHAT YOU ARE DOING!                                     |
|                                                                             |
 -----------------------------------------------------------------------------

  PAW_PBE C 08Apr2002                   :
 energy of atom  1       EATOM= -147.1560
 kinetic energy error for atom=    0.0076 (will be added to EATOM!!)
  PAW_PBE H 15Jun2001                   :
 energy of atom  2       EATOM=  -12.4884
 kinetic energy error for atom=    0.0020 (will be added to EATOM!!)
 
 
 POSCAR:  C  H
  positions in direct lattice
  velocities in cartesian coordinates
 exchange correlation table for  LEXCH =       17
   RHO(1)=    0.500       N(1)  =     2000
   RHO(2)=  100.500       N(2)  =     4000
 


--------------------------------------------------------------------------------------------------------


 ion  position               nearest neighbor table
   1  0.500  0.500  0.500-   4 1.09   2 1.09   3 1.09   5 1.09
   2  0.523  0.536  0.517-   1 1.09
   3  0.529  0.464  0.492-   1 1.09
   4  0.467  0.483  0.522-   1 1.09
   5  0.481  0.517  0.470-   1 1.09
 

IMPORTANT INFORMATION: All symmetrisations will be switched off!
NOSYMM: (Re-)initialisation of all symmetry stuff for point group C_1.


----------------------------------------------------------------------------------------

                                     Primitive cell                                     

  volume of cell :   15847.8426

  direct lattice vectors                    reciprocal lattice vectors
    23.670780182  0.000000000  0.000000000     0.042246178  0.000000000  0.000000000
     0.000000000 22.317026138  0.000000000     0.000000000  0.044808838  0.000000000
     0.000000000  0.000000000 30.000000000     0.000000000  0.000000000  0.033333333

  length of vectors
    23.670780182 22.317026138 30.000000000     0.042246178  0.044808838  0.033333333

  position of ions in fractional coordinates (direct lattice)
     0.499999653  0.500000163  0.500004304
     0.523345765  0.535733760  0.516504698
     0.528790038  0.463649189  0.491568144
     0.467212169  0.483308807  0.522245791
     0.480648151  0.517312563  0.469677063

  ion indices of the primitive-cell ions
   primitive index   ion index
                 1           1
                 2           2
                 3           3
                 4           4
                 5           5

----------------------------------------------------------------------------------------

 
 
 KPOINTS: KPOINTS created by Atomic Simulation Env

Automatic generation of k-mesh.
 Grid dimensions read from file:
 generate k-points for:    1    1    1

 Generating k-lattice:

  Cartesian coordinates                     Fractional coordinates (reciprocal lattice)
     0.042246178  0.000000000  0.000000000     1.000000000  0.000000000  0.000000000
     0.000000000  0.044808838  0.000000000     0.000000000  1.000000000  0.000000000
     0.000000000  0.000000000  0.033333333     0.000000000  0.000000000  1.000000000

  Length of vectors
     0.042246178  0.044808838  0.033333333

  Shift w.r.t. Gamma in fractional coordinates (k-lattice)
     0.000000000  0.000000000  0.000000000

 
 Subroutine IBZKPT returns following result:
 ===========================================
 
 Found      1 irreducible k-points:
 
 Following reciprocal coordinates:
            Coordinates               Weight
  0.000000  0.000000  0.000000      1.000000
 
 Following cartesian coordinates:
            Coordinates               Weight
  0.000000  0.000000  0.000000      1.000000
 
 
 Subroutine IBZKPT_HF returns following result:
 ==============================================
 
 Found      1 k-points in 1st BZ
 the following      1 k-points will be used (e.g. in the exchange kernel)
 Following reciprocal coordinates:   # in IRBZ
  0.000000  0.000000  0.000000    1.00000000   1 t-inv F


--------------------------------------------------------------------------------------------------------




 Dimension of arrays:
   k-points           NKPTS =      1   k-points in BZ     NKDIM =      1   number of bands    NBANDS=     64
   number of dos      NEDOS =    301   number of ions     NIONS =      5
   non local maximal  LDIM  =      4   non local SUM 2l+1 LMDIM =      8
   total plane-waves  NPLWV = ******
   max r-space proj   IRMAX =   1285   max aug-charges    IRDMAX=   2406
   dimension x,y,z NGX =   140 NGY =  126 NGZ =  168
   dimension x,y,z NGXF=   280 NGYF=  252 NGZF=  336
   support grid    NGXF=   280 NGYF=  252 NGZF=  336
   ions per type =               1   4
   NGX,Y,Z   is equivalent  to a cutoff of   9.83,  9.39,  9.31 a.u.
   NGXF,Y,Z  is equivalent  to a cutoff of  19.67, 18.77, 18.62 a.u.

 SYSTEM =  unknown system                          
 POSCAR =   C  H                                   

 Startparameter for this run:
   NWRITE =      2    write-flag & timer
   PREC   = normal    normal or accurate (medium, high low for compatibility)
   ISTART =      1    job   : 0-new  1-cont  2-samecut
   ICHARG =      0    charge: 1-file 2-atom 10-const
   ISPIN  =      1    spin polarized calculation?
   LNONCOLLINEAR =      F non collinear calculations
   LSORBIT =      F    spin-orbit coupling
   INIWAV =      1    electr: 0-lowe 1-rand  2-diag
   LASPH  =      F    aspherical Exc in radial PAW
 Electronic Relaxation 1
   ENCUT  =  500.0 eV  36.75 Ry    6.06 a.u.  43.16 40.69 54.70*2*pi/ulx,y,z
   ENINI  =  500.0     initial cutoff
   ENAUG  =  644.9 eV  augmentation charge cutoff
   NELM   =    200;   NELMIN=  2; NELMDL=  0     # of ELM steps 
   EDIFF  = 0.1E-04   stopping-criterion for ELM
   LREAL  =      T    real-space projection
   NLSPLINE    = F    spline interpolate recip. space projectors
   LCOMPAT=      F    compatible to vasp.4.4
   GGA_COMPAT  = T    GGA compatible to vasp.4.4-vasp.4.6
   LMAXPAW     = -100 max onsite density
   LMAXMIX     =    2 max onsite mixed and CHGCAR
   VOSKOWN=      0    Vosko Wilk Nusair interpolation
   ROPT   =   -0.00050  -0.00050
 Ionic relaxation
   EDIFFG = -.5E-01   stopping-criterion for IOM
   NSW    =     97    number of steps for IOM
   NBLOCK =      1;   KBLOCK =     97    inner block; outer block 
   IBRION =      5    ionic relax: 0-MD 1-quasi-New 2-CG
   NFREE  =      2    steps in history (QN), initial steepest desc. (CG)
   ISIF   =      2    stress and relaxation
   IWAVPR =     11    prediction:  0-non 1-charg 2-wave 3-comb
   ISYM   =      0    0-nonsym 1-usesym 2-fastsym
   LCORR  =      T    Harris-Foulkes like correction to forces

   POTIM  = 0.0150    time-step for ionic-motion
   TEIN   =    0.0    initial temperature
   TEBEG  =    0.0;   TEEND  =   0.0 temperature during run
   SMASS  =  -3.00    Nose mass-parameter (am)
   estimated Nose-frequenzy (Omega)   =  0.10E-29 period in steps = 0.42E+48 mass=  -0.128E-25a.u.
   SCALEE = 1.0000    scale energy and forces
   NPACO  =    256;   APACO  = 10.0  distance and # of slots for P.C.
   PSTRESS=    0.0 pullay stress

  Mass of Ions in am
   POMASS =  12.01  1.00
  Ionic Valenz
   ZVAL   =   4.00  1.00
  Atomic Wigner-Seitz radii
   RWIGS  =  -1.00 -1.00
  virtual crystal weights 
   VCA    =   1.00  1.00
   NELECT =       8.0000    total number of electrons
   NUPDOWN=      -1.0000    fix difference up-down

 DOS related values:
   EMIN   =  10.00;   EMAX   =-10.00  energy-range for DOS
   EFERMI =   0.00
   ISMEAR =     0;   SIGMA  =   0.01  broadening in eV -4-tet -1-fermi 0-gaus

 Electronic relaxation 2 (details)
   IALGO  =     58    algorithm
   LDIAG  =      T    sub-space diagonalisation (order eigenvalues)
   LSUBROT=      F    optimize rotation matrix (better conditioning)
   TURBO    =      0    0=normal 1=particle mesh
   IRESTART =      0    0=no restart 2=restart with 2 vectors
   NREBOOT  =      0    no. of reboots
   NMIN     =      0    reboot dimension
   EREF     =   0.00    reference energy to select bands
   IMIX   =      4    mixing-type and parameters
     AMIX     =   0.40;   BMIX     =  1.00
     AMIX_MAG =   1.60;   BMIX_MAG =  1.00
     AMIN     =   0.10
     WC   =   100.;   INIMIX=   1;  MIXPRE=   1;  MAXMIX= -45

 Intra band minimization:
   WEIMIN = 0.0010     energy-eigenvalue tresh-hold
   EBREAK =  0.39E-07  absolut break condition
   DEPER  =   0.30     relativ break condition  

   TIME   =   0.40     timestep for ELM

  volume/ion in A,a.u.               =    3169.57     21389.30
  Fermi-wavevector in a.u.,A,eV,Ry     =   0.130351  0.246328  0.231182  0.016991
  Thomas-Fermi vector in A             =   0.769859
 
 Write flags
   LWAVE        =      F    write WAVECAR
   LDOWNSAMPLE  =      F    k-point downsampling of WAVECAR
   LCHARG       =      F    write CHGCAR
   LVTOT        =      F    write LOCPOT, total local potential
   LVHAR        =      F    write LOCPOT, Hartree potential only
   LELF         =      F    write electronic localiz. function (ELF)
   LORBIT       =      0    0 simple, 1 ext, 2 COOP (PROOUT), +10 PAW based schemes


 Dipole corrections
   LMONO  =      F    monopole corrections only (constant potential shift)
   LDIPOL =      F    correct potential (dipole corrections)
   IDIPOL =      0    1-x, 2-y, 3-z, 4-all directions 
   EPSILON=  1.0000000 bulk dielectric constant

 Exchange correlation treatment:
   GGA     =    BF    GGA type
   LEXCH   =    17    internal setting for exchange type
   LIBXC   =     F    Libxc                    
   VOSKOWN =     0    Vosko Wilk Nusair interpolation
   LHFCALC =     F    Hartree Fock is set to
   LHFONE  =     F    Hartree Fock one center treatment
   AEXX    =    0.0000 exact exchange contribution

 vdW DFT:
   LUSE_VDW   =     T    switch on vdW DFT
   Zab_VDW    =******    correlation parameter
   PARAM1     =0.1234
   PARAM2     =1.0000
   PARAM3     =0.0000
   -- rVV10 --
   BPARAM     = 6.3000
   CPARAM     = 0.0093

 Linear response parameters
   LEPSILON=     F    determine dielectric tensor
   LRPA    =     F    only Hartree local field effects (RPA)
   LNABLA  =     F    use nabla operator in PAW spheres
   LVEL    =     F    velocity operator in full k-point grid
   CSHIFT  =0.1000    complex shift for real part using Kramers Kronig
   OMEGAMAX=  -1.0    maximum frequency
   DEG_THRESHOLD= 0.2000000E-02 threshold for treating states as degnerate
   RTIME   =   -0.100 relaxation time in fs
  (WPLASMAI=    0.000 imaginary part of plasma frequency in eV, 0.658/RTIME)
   DFIELD  = 0.0000000 0.0000000 0.0000000 field for delta impulse in time
 
  Optional k-point grid parameters
   LKPOINTS_OPT  =     F    use optional k-point grid
   KPOINTS_OPT_MODE=     1    mode for optional k-point grid
 
 Orbital magnetization related:
   ORBITALMAG=     F  switch on orbital magnetization
   LCHIMAG   =     F  perturbation theory with respect to B field
   DQ        =  0.001000  dq finite difference perturbation B field
   LLRAUG    =     F  two centre corrections for induced B field



--------------------------------------------------------------------------------------------------------


 finite differences
 charge density and potential will be updated during run
 non-spin polarized calculation
 Conjugate gradient for all bands (Freysoldt, et al. PRB 79, 241103 (2009))
 preconditioned conjugated gradient                                        
 perform sub-space diagonalisation
    before iterative eigenvector-optimisation
 modified Broyden-mixing scheme, WC =      100.0
 initial mixing is a Kerker type mixing with AMIX =  0.4000 and BMIX =      1.0000
 Hartree-type preconditioning will be used
 using additional bands           60
 real space projection scheme for non local part
 use partial core corrections
 no Harris-corrections to forces 
 use gradient corrections 
 use of overlap-Matrix (Vanderbilt PP)
 Gauss-broadening in eV      SIGMA  =   0.01


--------------------------------------------------------------------------------------------------------


  energy-cutoff  :      500.00
  volume of cell :    15847.84
      direct lattice vectors                 reciprocal lattice vectors
    23.670780182  0.000000000  0.000000000     0.042246178  0.000000000  0.000000000
     0.000000000 22.317026138  0.000000000     0.000000000  0.044808838  0.000000000
     0.000000000  0.000000000 30.000000000     0.000000000  0.000000000  0.033333333

  length of vectors
    23.670780182 22.317026138 30.000000000     0.042246178  0.044808838  0.033333333


 
 old parameters found on file WAVECAR:
  energy-cutoff  :      500.00
  volume of cell :    15847.84
      direct lattice vectors                 reciprocal lattice vectors
    23.670780182  0.000000000  0.000000000     0.042246178  0.000000000  0.000000000
     0.000000000 22.317026138  0.000000000     0.000000000  0.044808838  0.000000000
     0.000000000  0.000000000 30.000000000     0.000000000  0.000000000  0.033333333

  length of vectors

 
 k-points in units of 2pi/SCALE and weight: KPOINTS created by Atomic Simulation Env
   0.00000000  0.00000000  0.00000000       1.000
 
 k-points in reciprocal lattice and weights: KPOINTS created by Atomic Simulation Env
   0.00000000  0.00000000  0.00000000       1.000
 
 position of ions in fractional coordinates (direct lattice) 
   0.49999965  0.50000016  0.50000430
   0.52334576  0.53573376  0.51650470
   0.52879004  0.46364919  0.49156814
   0.46721217  0.48330881  0.52224579
   0.48064815  0.51731256  0.46967706
 
 position of ions in cartesian coordinates  (Angst):
  11.83538188 11.15851670 15.00012912
  12.38800255 11.95598432 15.49514095
  12.51687275 10.34727107 14.74704431
  11.05927655 10.78601527 15.66737373
  11.37731672 11.54487799 14.09031190
 


--------------------------------------------------------------------------------------------------------


 use serial FFT for orbitals x direction half grid
 k-point   1 :   0.0000 0.0000 0.0000  plane waves:  201172

 maximum and minimum number of plane-waves per node :    201172   201172

 maximum number of plane-waves:    201172
 maximum index in each direction: 
   IXMAX=   43   IYMAX=   40   IZMAX=   54
   IXMIN=    0   IYMIN=  -40   IZMIN=  -54


 serial   3D FFT for wavefunctions
 parallel 3D FFT for charge:
    minimum data exchange during FFTs selected (reduces bandwidth)


 total amount of memory used by VASP MPI-rank0   208473. kBytes
=======================================================================

   base      :      30000. kBytes
   nonlr-proj:        263. kBytes
   fftplans  :      25914. kBytes
   grid      :     142632. kBytes
   one-center:          7. kBytes
   wavefun   :       9657. kBytes
 
     INWAV:  cpu time      1.9777: real time      2.0497
 Broyden mixing: mesh for mixing (old mesh)
   NGX = 87   NGY = 81   NGZ =109
  (NGX  =280   NGY  =252   NGZ  =336)
  gives a total of 768123 points

 charge density for first step will be calculated from the start-wavefunctions


--------------------------------------------------------------------------------------------------------


 Maximum index for non-local projection operator         1200
 Maximum index for augmentation-charges           84 (set IRDMAX)


--------------------------------------------------------------------------------------------------------


 initial charge from wavefunction
 First call to EWALD:  gamma=   0.071
 Maximum number of real-space cells 3x 3x 2
 Maximum number of reciprocal cells 3x 2x 3

    FEWALD:  cpu time      0.0111: real time      0.0111


--------------------------------------- Iteration      1(   1)  ---------------------------------------


vdW kernel read from vdw_kernel.bindat
  0.0000  0.2424  0.5071  0.7962  1.1119  1.4567  1.8333  2.2446  2.6937  3.1842
  3.7199  4.3049  4.9438  5.6415  6.4036  7.2358  8.1446  9.1372 10.2212 11.4050
 12.6979 14.1099 15.6519 17.3360 19.1751 21.1837 23.3773 25.7729 28.3892 31.2465
 34.3669 37.7748 41.4965 45.5611 50.0000
 
    POTLOK:  cpu time     15.4796: real time     15.4852
    SETDIJ:  cpu time      0.0092: real time      0.0092
    TRIAL :  cpu time      1.1011: real time      1.1593
    CORREC:  cpu time     14.9350: real time     14.9466
    CHARGE:  cpu time      0.3880: real time      0.3893
    --------------------------------------------
      LOOP:  cpu time     31.9274: real time     32.0075

 eigenvalue-minimisations  :     0
 total energy-change (2. order) :-0.2327893E+02  (-0.2370096E-06)
 number of electron       7.9999998 magnetization 
 augmentation part        0.1908106 magnetization 

 Free energy of the ion-electron system (eV)
  ---------------------------------------------------
  alpha Z        PSCENC =         0.01528604
  Ewald energy   TEWEN  =       209.45537715
  -Hartree energ DENC   =      -364.61172719
  -exchange      EXHF   =         0.00000000
  -V(xc)+E(xc)   XCENC  =        25.03070553
  PAW double counting   =       492.82675704     -493.90828331
  entropy T*S    EENTRO =        -0.00000000
  eigenvalues    EBANDS =       -93.58244709
  atomic energy  EATOM  =       201.49539784
  ---------------------------------------------------
  free energy    TOTEN  =       -23.27893399 eV

  energy without entropy =      -23.27893399  energy(sigma->0) =      -23.27893399


--------------------------------------------------------------------------------------------------------




--------------------------------------- Iteration      1(   2)  ---------------------------------------


    POTLOK:  cpu time     14.1864: real time     14.1944
    SETDIJ:  cpu time      0.0078: real time      0.0078
    TRIAL :  cpu time      1.0107: real time      1.0080
    CORREC:  cpu time     14.7973: real time     14.8051
    EDDIAG:  cpu time      0.3640: real time      0.3715
    CHARGE:  cpu time      0.3890: real time      0.3896
    --------------------------------------------
      LOOP:  cpu time     30.7569: real time     30.7792

 eigenvalue-minimisations  :     0
 total energy-change (2. order) :-0.2360574E-06  (-0.1246610E-06)
 number of electron       7.9999998 magnetization 
 augmentation part        0.1908097 magnetization 

 Free energy of the ion-electron system (eV)
  ---------------------------------------------------
  alpha Z        PSCENC =         0.01528604
  Ewald energy   TEWEN  =       209.45537715
  -Hartree energ DENC   =      -364.61138094
  -exchange      EXHF   =         0.00000000
  -V(xc)+E(xc)   XCENC  =        25.03072399
  PAW double counting   =       492.83317493     -493.91470089
  entropy T*S    EENTRO =        -0.00000000
  eigenvalues    EBANDS =       -93.58281233
  atomic energy  EATOM  =       201.49539784
  ---------------------------------------------------
  free energy    TOTEN  =       -23.27893422 eV

  energy without entropy =      -23.27893422  energy(sigma->0) =      -23.27893422


--------------------------------------------------------------------------------------------------------


  average scaling for gradient   1.1866


 average (electrostatic) potential at core
  the test charge radii are     0.6991  0.5201
  (the norm of the test charge is              1.0000)
       1 -58.6607       2 -42.9191       3 -42.9191       4 -42.9195       5 -42.9173
 
 
 
 E-fermi :  -9.6819     XC(G=0):  -0.0646     alpha+bet : -0.0133

 Fermi energy:        -9.6819033760

 k-point     1 :       0.0000    0.0000    0.0000
  band No.  band energies     occupation 
      1     -17.4449      2.00000
      2      -9.7830      2.00000
      3      -9.7823      2.00000
      4      -9.7808      2.00000
      5      -0.7930      0.00000
      6       0.0186      0.00000
      7       0.1139      0.00000
      8       0.1707      0.00000
      9       0.1850      0.00000
     10       0.1867      0.00000
     11       0.2728      0.00000
     12       0.3053      0.00000
     13       0.3300      0.00000
     14       0.3427      0.00000
     15       0.3682      0.00000
     16       0.4235      0.00000
     17       0.4371      0.00000
     18       0.4492      0.00000
     19       0.4562      0.00000
     20       0.5082      0.00000
     21       0.5167      0.00000
     22       0.5218      0.00000
     23       0.5469      0.00000
     24       0.5573      0.00000
     25       0.6102      0.00000
     26       0.6500      0.00000
     27       0.6557      0.00000
     28       0.6742      0.00000
     29       0.6982      0.00000
     30       0.7069      0.00000
     31       0.7150      0.00000
     32       0.7161      0.00000
     33       0.7361      0.00000
     34       0.8137      0.00000
     35       0.8463      0.00000
     36       0.8692      0.00000
     37       0.8950      0.00000
     38       0.9080      0.00000
     39       0.9299      0.00000
     40       0.9408      0.00000
     41       0.9923      0.00000
     42       0.9974      0.00000
     43       1.0471      0.00000
     44       1.0661      0.00000
     45       1.0932      0.00000
     46       1.1419      0.00000
     47       1.1535      0.00000
     48       1.1648      0.00000
     49       1.1719      0.00000
     50       1.1910      0.00000
     51       1.2235      0.00000
     52       1.2585      0.00000
     53       1.2824      0.00000
     54       1.2882      0.00000
     55       1.2984      0.00000
     56       1.3320      0.00000
     57       1.3465      0.00000
     58       1.3757      0.00000
     59       1.4011      0.00000
     60       1.4275      0.00000
     61       1.4358      0.00000
     62       1.4478      0.00000
     63       1.4676      0.00000
     64       1.5408      0.00000


--------------------------------------------------------------------------------------------------------


 soft charge-density along one line, spin component           1
         0         1         2         3         4         5         6         7         8         9
 total charge-density along one line
 
 pseudopotential strength for first ion, spin component:           1
 10.255  13.638  -0.000   0.000  -0.000   0.000  -0.000   0.000
 13.638  18.137  -0.000   0.000  -0.000   0.000  -0.000   0.000
 -0.000  -0.000  -4.248  -0.000  -0.000   8.308   0.000   0.000
  0.000   0.000  -0.000  -4.248   0.000   0.000   8.308  -0.000
 -0.000  -0.000  -0.000   0.000  -4.248   0.000  -0.000   8.308
  0.000   0.000   8.308   0.000   0.000 -18.387  -0.000  -0.000
 -0.000  -0.000   0.000   8.308  -0.000  -0.000 -18.387   0.000
  0.000   0.000   0.000  -0.000   8.308  -0.000   0.000 -18.387
 total augmentation occupancy for first ion, spin component:           1
  8.362  -3.678   0.000   0.000  -0.000   0.000   0.000   0.000
 -3.678   1.618  -0.000   0.000   0.000  -0.000  -0.000   0.000
  0.000  -0.000   1.640   0.000   0.000   0.139   0.000   0.000
  0.000   0.000   0.000   1.640  -0.000   0.000   0.139  -0.000
 -0.000   0.000   0.000  -0.000   1.640   0.000  -0.000   0.139
  0.000  -0.000   0.139   0.000   0.000   0.012   0.000   0.000
  0.000  -0.000   0.000   0.139  -0.000   0.000   0.012  -0.000
  0.000   0.000   0.000  -0.000   0.139   0.000  -0.000   0.012


------------------------ aborting loop because EDIFF is reached ----------------------------------------


    FORLOC:  cpu time      0.0492: real time      0.0491
    FORNL :  cpu time      0.4605: real time      0.4606
    STRESS:  cpu time      1.1133: real time      1.1127
    FORCOR:  cpu time     13.9484: real time     13.9566
    OFIELD:  cpu time      0.0049: real time      0.0049

  FORCE on cell =-STRESS in cart. coord.  units (eV):
  Direction    XX          YY          ZZ          XY          YZ          ZX
  --------------------------------------------------------------------------------------
  Alpha Z     0.01529     0.01529     0.01529
  Ewald      73.32063    76.40570    59.72899     0.01107     0.00607    -0.01210
  Hartree   125.02547   128.09071   111.49652     0.00059     0.00036    -0.00107
  E(xc)     -28.87515   -28.87508   -28.87518     0.00007     0.00003    -0.00007
  Local    -256.73198  -262.88141  -229.61378    -0.00796    -0.00450     0.00955
  n-local   -15.75646   -15.72892   -15.71851     0.00005    -0.00064     0.00057
  augment     0.17109     0.17047     0.17095    -0.00007    -0.00000     0.00004
  Kinetic   102.69238   102.69128   102.69283    -0.00087    -0.00061     0.00142
  Fock        0.00000     0.00000     0.00000     0.00000     0.00000     0.00000
  -------------------------------------------------------------------------------------
  Total      -0.13873    -0.11196    -0.10290     0.00289     0.00071    -0.00164
  in kB      -0.01402    -0.01132    -0.01040     0.00029     0.00007    -0.00017
  external pressure =       -0.01 kB  Pullay stress =        0.00 kB


 VOLUME and BASIS-vectors are now :
 -----------------------------------------------------------------------------
  energy-cutoff  :      500.00
  volume of cell :    15847.84
      direct lattice vectors                 reciprocal lattice vectors
    23.670780182  0.000000000  0.000000000     0.042246178  0.000000000  0.000000000
     0.000000000 22.317026138  0.000000000     0.000000000  0.044808838  0.000000000
     0.000000000  0.000000000 30.000000000     0.000000000  0.000000000  0.033333333

  length of vectors
    23.670780182 22.317026138 30.000000000     0.042246178  0.044808838  0.033333333


 FORCES acting on ions:
    Electron-Ion                     Ewald-Force                    Non-Local-Force
 -----------------------------------------------------------------------------------------------
   -.152E-02 0.172E-02 -.123E-02   0.151E-02 -.170E-02 -.188E-02   0.901E-03 -.689E-03 -.175E-02
   -.273E+02 -.394E+02 -.245E+02   0.303E+02 0.437E+02 0.271E+02   -.292E+01 -.422E+01 -.262E+01
   -.337E+02 0.401E+02 0.125E+02   0.373E+02 -.444E+02 -.139E+02   -.360E+01 0.429E+01 0.134E+01
   0.384E+02 0.184E+02 -.330E+02   -.425E+02 -.204E+02 0.366E+02   0.411E+01 0.197E+01 -.353E+01
   0.227E+02 -.191E+02 0.450E+02   -.251E+02 0.211E+02 -.498E+02   0.242E+01 -.204E+01 0.481E+01
 -----------------------------------------------------------------------------------------------
   0.261E-03 -.248E-03 0.707E-02   0.178E-13 -.711E-14 -.711E-14   0.972E-03 -.934E-03 -.277E-02
 
 
 POSITION                                       TOTAL-FORCE (eV/Angst)
 -----------------------------------------------------------------------------------
     11.83538     11.15852     15.00013         0.000644     -0.000443     -0.005661
     12.38800     11.95598     15.49514         0.001180      0.001974      0.000913
     12.51687     10.34727     14.74704        -0.000485      0.000538      0.000493
     11.05928     10.78602     15.66737        -0.002375     -0.001230      0.001830
     11.37732     11.54488     14.09031         0.001035     -0.000839      0.002425
 -----------------------------------------------------------------------------------
    total drift:                                0.001233     -0.001182      0.004299


--------------------------------------------------------------------------------------------------------



  FREE ENERGIE OF THE ION-ELECTRON SYSTEM (eV)
  ---------------------------------------------------
  free  energy   TOTEN  =       -23.27893422 eV

  energy  without entropy=      -23.27893422  energy(sigma->0) =      -23.27893422
 


--------------------------------------------------------------------------------------------------------


 BEEFens 2000 ensemble energies
             -0.666995765826153E+01
              0.794650997025492E-01
             -0.130695586441735E+01
              0.445351876277782E+01
             -0.234003263864615E+01
             -0.166308721846373E+01
             -0.473268550946727E+01
             -0.986085962913627E+01
             -0.376064491956521E+01
             -0.421589469969087E+01
             -0.333564942861927E+01
              0.243682325809025E+00
              0.128247541155599E+00
              0.660595994233510E-01
              0.316079948380054E+00
              0.487487623809832E+01
             -0.229150030886092E+01
             -0.130421017278677E+01
              0.251397848561574E+01
             -0.115455427213017E+02
              0.544063483819365E+01
             -0.226950627131000E+01
             -0.671047109568347E+00
             -0.105145043491643E+01
              0.106387218464675E+00
             -0.551914606821590E+00
              0.949514200862338E+01
             -0.193719021572167E+01
             -0.762676720996005E+00
             -0.558262939491046E+01
              0.767969582266097E+01
             -0.764142908825448E+00
             -0.432708164958868E+01
              0.179416447541714E+01
             -0.295758871032007E+00
              0.263009119937079E+01
             -0.178803311118394E+00
              0.228890496683270E+00
              0.377886764313972E+01
             -0.105953083893581E+02
              0.598571623090370E+01
              0.111166574512534E+01
             -0.988305243679271E+00
             -0.293165856852956E+01
              0.140053905564065E+01
             -0.151309754179678E+01
              0.508140720213665E+01
              0.370067459070760E+01
             -0.244968375166773E+01
             -0.309555475947792E+01
             -0.324236581476418E+01
             -0.400168994738269E+01
              0.248335101161737E+01
             -0.532249986481751E+01
              0.148014127227270E+01
              0.620083006171170E+01
              0.727752968776726E+01
              0.348650206161174E+01
              0.186082163904548E+01
              0.322955785663815E+01
              0.977840775380632E+01
              0.203679283855977E+01
             -0.580048884211864E+01
             -0.132809898309646E+01
             -0.315975253834082E+01
              0.646446302108937E+01
             -0.786517024132498E+01
             -0.651463920998837E+01
             -0.347353266109553E+01
             -0.157963726235374E+01
             -0.413129222513811E+01
              0.303873375024515E+01
              0.161294688986166E+01
              0.131425334498535E+01
             -0.426875690028195E+01
             -0.357337546989494E+01
             -0.585272860573158E+01
              0.363291392063051E+01
             -0.334785381783274E+01
              0.346535673926275E+01
             -0.924247002162210E+00
             -0.327682362755537E+01
             -0.530876753459443E+01
             -0.149468896846474E+01
             -0.157595606562627E+01
             -0.136883043696733E+01
              0.436394553294114E+01
              0.774662554453665E+01
             -0.428005745106853E+01
             -0.807968540279066E+01
             -0.202307603299886E+01
              0.114815197187086E+02
             -0.606051109681027E+01
              0.338469260944698E+01
             -0.759254867842387E+00
             -0.652419171356504E+01
              0.296974575960327E+01
              0.335048451690703E+01
             -0.149744288681960E+01
              0.324487557315236E+01
             -0.292969562653165E+01
             -0.578818711884423E+01
              0.101893855630622E+02
              0.453094503764443E+01
              0.252139324547570E+01
              0.939821904710755E+00
              0.175070885333774E+01
              0.856426181295326E+01
             -0.302046308022055E+01
              0.354669928587091E+00
             -0.147041497321614E+02
              0.218153647126989E+01
             -0.711175048665428E+01
              0.130870131509016E+01
              0.214586534382037E+01
             -0.350984568929735E+01
             -0.548635707483799E+01
              0.354969422214083E+00
             -0.328387081723798E+01
              0.425132354109892E+01
             -0.462523779065281E+01
             -0.770591322750789E+00
             -0.399342811196400E+01
             -0.293714895205426E-01
              0.277841576161624E+00
              0.209180240097622E+01
              0.119560363603270E+00
             -0.754311697582018E+00
              0.673706591107363E+01
              0.951913536061572E+01
              0.516568464428057E+01
              0.725544498842645E+01
             -0.155094724006439E+01
              0.595240028903635E+00
              0.531243340933275E+01
              0.170060708163721E+00
             -0.789358040513070E+01
             -0.460137270063906E+01
             -0.522087066475755E+01
             -0.311165255778479E+01
              0.284861730760998E+01
             -0.124342772369196E+02
             -0.132750138355551E+01
              0.442385730229038E+01
             -0.442394628438127E+01
             -0.342508621245405E+01
              0.564497218845598E+01
              0.511096330297919E+01
             -0.315984195706238E+01
              0.303710228015989E+01
             -0.285275315381039E+01
              0.401573206396292E+01
              0.826977834908472E+00
              0.141561494294001E+01
             -0.876016235514527E+01
             -0.498129894674688E+01
             -0.117862797707583E+01
             -0.669203213764305E+00
             -0.416113082285280E+01
              0.115789389178906E+02
             -0.130619376487917E+01
             -0.321361396166133E+01
              0.422654195622599E+01
             -0.470081208664880E+01
             -0.391410974473423E+01
              0.314681456361468E+01
              0.111999690607968E+01
              0.100754023067715E+01
              0.143139027367790E+01
             -0.124091296828453E+01
              0.126587465439344E+01
              0.615361014268962E+01
             -0.298431812739334E+01
              0.203795695376492E+01
              0.944943395343712E+01
              0.329513482530996E+01
             -0.274326756735363E+00
             -0.186533271320014E+01
              0.157972189376812E+02
             -0.253803555005442E+01
              0.419011715952939E+01
              0.299962721012821E+01
              0.314002666254045E+01
              0.980292023138151E+01
              0.485671425831350E+01
             -0.298929617854885E+00
              0.233650603968809E+01
              0.542795237645236E+01
              0.368813352588624E+01
             -0.626197136284122E+01
              0.995051524566169E+01
             -0.932677846152027E+01
             -0.135894913393305E+01
              0.582361160765827E+01
              0.127122655596400E+01
              0.313045684700825E+00
              0.309167290510921E+01
              0.193850427735979E+01
              0.327759012439016E+01
             -0.638647092780491E+01
              0.334511153762051E+00
             -0.252077324893336E+01
             -0.315961177714065E+00
             -0.853821105486929E-02
             -0.133800107059348E+01
             -0.623671477909557E+00
              0.901101604102464E+01
             -0.443838430686808E+00
             -0.310526011294446E+01
             -0.270933023746374E+00
              0.148099296261906E+01
             -0.637770333015878E+01
             -0.523517702325478E+01
             -0.344269069687748E+01
             -0.649000436044836E+01
             -0.177286492483934E+01
             -0.435730575851437E+01
              0.170884020429079E+01
             -0.811769773077060E-01
             -0.136360058892735E+01
             -0.904922795681568E+00
              0.737700484590441E+00
             -0.217742614565260E+01
              0.676082494116476E+01
             -0.903975538328781E+01
             -0.110365835607550E+01
             -0.161124164972795E+01
              0.183764081456061E+01
              0.206345056827608E+01
             -0.513331907362857E+01
             -0.140278880286741E+01
              0.479533789297609E+01
             -0.255926526990295E+01
              0.139561097611689E+01
              0.381091960067929E+01
              0.633354704383180E-01
              0.119231190886909E+02
             -0.134016013492728E+01
             -0.394294650090960E+01
             -0.120365374232449E+00
             -0.312419930152693E+01
              0.509801740076274E+01
             -0.502130210988927E+01
              0.167322624302153E+01
              0.503814715244591E+01
             -0.147695400593643E+01
              0.122529849136261E+02
              0.130350363814111E+02
             -0.767451195844464E+01
              0.603929490749876E+01
              0.222790708220412E+01
             -0.564528343894104E+01
              0.229999872996336E+01
              0.438692209940186E+01
              0.458382344103206E+01
              0.433083105390295E+00
              0.231180356230040E+01
              0.767342803171957E+01
             -0.248130838706124E+01
              0.102948676027986E+01
              0.677539553332257E+01
             -0.360090235802824E+01
             -0.224838539949123E+01
              0.615074997744756E+01
              0.330388763464705E+01
              0.798184559794144E+01
              0.338723072020349E+01
              0.142633686759483E+01
              0.243552598833207E+01
              0.454079361436363E+01
             -0.519769954145891E+01
              0.557281093984400E+00
              0.243082429710741E+01
              0.711071614819282E+00
              0.257702359614705E+01
             -0.663186372342339E+01
              0.356735958276813E+01
             -0.440881470481953E+01
             -0.344882172489612E+01
              0.201274618468232E+01
             -0.127433970160597E+01
              0.616154231599944E+01
             -0.196820127999243E+01
              0.280978615693293E+01
              0.314709765804991E+01
              0.824480731866423E+01
              0.565136726207481E+01
              0.550142926395708E+01
             -0.759394763623380E+00
             -0.874708222481576E+00
             -0.334401120700699E+01
              0.842775162784632E+01
              0.856653993036273E+01
              0.381801569002563E+01
             -0.271670827944527E+01
              0.515004137958246E+01
             -0.534080846821013E+00
              0.212864663474767E+01
              0.712355194695463E+01
             -0.422948293648004E+00
             -0.123565209314016E+01
             -0.278093115170800E+01
             -0.625025132408881E+01
              0.100736716580669E+02
              0.509586992289339E+01
             -0.665864997301916E+01
             -0.188470392155000E+01
              0.238130692678268E+01
             -0.139024855282643E+01
              0.645624748904528E+01
              0.179652224356373E+01
              0.819011854560078E+01
              0.278226034112384E+01
             -0.233787501869270E+01
              0.184905799870799E+01
             -0.735531075920001E+00
             -0.257659330053576E+01
              0.179653031951531E+01
              0.207324128900454E+01
              0.941870886365975E+01
              0.778504032335672E+01
              0.612274412789496E+01
              0.745399122930630E+01
              0.104727316806569E+01
             -0.302091307144642E+01
              0.133180547322527E+01
             -0.358890783750021E+01
             -0.556281741798798E+01
             -0.578602916590612E+01
             -0.329905773239307E+01
             -0.115383801141272E+02
             -0.376984756412129E+01
             -0.881964821660474E+01
              0.191420052914725E+01
             -0.487279513094845E+01
              0.513344885262946E+01
             -0.989398257081936E+01
             -0.316665855139658E+01
              0.449687244730496E+01
              0.212641882935741E+01
             -0.905609123183615E+01
              0.553891517399694E+01
             -0.301340595820120E+01
              0.564343430410056E+01
             -0.290463010180220E+01
             -0.774779659134359E+01
              0.174325286741042E+01
             -0.637338045348014E+01
             -0.711292774283915E+00
             -0.167226746805635E+00
              0.431983489446070E+01
              0.130973891099084E+02
             -0.465304675591990E+01
             -0.389181733099093E+01
             -0.942059920035916E+00
             -0.890864126480469E+00
             -0.823033626839402E+01
             -0.627574700702626E+01
              0.554611026170694E+01
             -0.209100503918658E+01
              0.200179856809487E+01
             -0.498955317084742E+01
             -0.134342683022403E+01
             -0.456847367986406E+01
              0.504816605735329E+01
              0.147492102657536E+01
             -0.262541353690219E+01
             -0.152583721863525E+01
              0.118954145975600E+01
             -0.762340418647540E+00
              0.383941703573966E+01
             -0.285423921812250E+01
              0.970657156263556E+00
              0.353882831047976E+01
              0.134546271754613E+01
             -0.236462995071319E+01
              0.162815634051746E+02
              0.608830567147762E+01
              0.763135738118254E+00
              0.750046169891235E+00
             -0.632309400422331E+01
              0.337531245649167E+01
             -0.763773492713221E+01
             -0.342911595001743E+01
             -0.625497521546433E+01
             -0.198814233799652E+01
              0.628267122643459E+01
             -0.603232835626338E+01
              0.236045273874793E+01
             -0.577092081895479E+00
              0.139410977941930E+00
             -0.351292401952871E+01
             -0.446065828575708E+01
             -0.902771779310989E+00
             -0.373763876621566E+01
             -0.228179524919668E+01
             -0.388513809234249E+01
             -0.571547918430755E+00
             -0.325174446355383E+01
             -0.503603678715618E+01
              0.248059272929773E+01
             -0.137424847280628E+01
              0.235413506649537E+01
              0.117006449828011E+01
             -0.779385992705284E+01
             -0.546477108877423E+01
             -0.516431910504257E+01
              0.339418751615058E+01
             -0.459127822267607E+00
             -0.640727111045237E+01
              0.601547083381954E+01
             -0.454480990420786E+01
              0.570147409890987E+01
             -0.317325856190193E+01
             -0.495842315555359E+01
              0.267570806663869E+01
             -0.733969109216199E+01
             -0.345390883615397E+01
              0.679260707052655E+01
              0.246712293925596E+01
             -0.409828320589801E+01
              0.588747167988623E+01
             -0.172849594485836E+01
             -0.361253891824136E+01
             -0.315409056486859E+01
             -0.560775036431489E+01
              0.276464333567910E+01
             -0.954949670717787E+01
             -0.824090498941380E+01
             -0.636265626973398E+00
             -0.309508118612446E+01
             -0.650816969339211E+01
              0.771759748420963E+01
              0.142917263920755E+02
             -0.261574635901772E+01
             -0.187635413472250E+00
             -0.670408168871932E+01
              0.681338451583005E+01
              0.215057412752245E+01
             -0.192010894830395E+01
             -0.411719463078810E+01
              0.126733865321113E+01
             -0.616364321978201E+01
             -0.115156444043043E+01
             -0.914344183246263E+01
              0.313530017826226E+01
              0.175636129780796E+01
             -0.241495928514652E+00
             -0.114298096734712E+01
             -0.399871670699514E+01
             -0.145994585780959E+01
              0.142811301565297E+02
             -0.165175770305629E+01
             -0.500906690862519E+01
             -0.710774380608836E+01
              0.146972045365030E+01
             -0.383073745468167E+01
              0.656093795613737E+00
              0.321857631422327E+01
              0.779451317607716E+00
              0.386280128058003E+01
              0.193437348715755E+01
              0.638687011184278E+01
              0.288291100982616E+01
             -0.364827109834418E+01
              0.500940592645143E+01
              0.384809623398461E+01
              0.134703443951415E+01
              0.436377426122662E+01
             -0.281652979399533E+01
              0.746243161477921E+01
              0.238951784829358E+01
             -0.334334246354284E+01
             -0.984880914837185E+00
             -0.174487594076808E+01
              0.187863502278130E+01
             -0.261761477340548E+01
             -0.924545459554189E+00
             -0.118007798992321E+01
              0.826417873895078E+01
              0.598501831669189E+01
             -0.699893511436054E+01
             -0.726777604348978E+00
             -0.553681158391860E+01
             -0.130847281679765E+01
             -0.267185211451781E+01
              0.814034495648130E+00
             -0.270837801337448E+00
             -0.291968474145238E+01
              0.131684312002108E+01
             -0.771460236194551E+00
             -0.107890782612489E+01
              0.890692128421043E+01
              0.166537919519336E+01
             -0.872432968074190E+01
             -0.459519520600659E+01
              0.993918813734187E+01
              0.236884293787238E+01
             -0.955142145647130E+00
              0.114343119317860E+02
             -0.178852203960769E+01
             -0.905835349511310E+00
             -0.139607438232557E+01
              0.159129369649703E+01
              0.326808270433302E+01
              0.539382896932632E+00
              0.311540195495856E+01
             -0.139598062449775E+01
             -0.390785811033836E+01
             -0.400153848314018E+01
             -0.510957860328097E+01
              0.473983129015375E+01
              0.165641816032141E+01
              0.402725199281920E+01
              0.182596740721908E+01
              0.929239519962380E+01
              0.169361035926846E+01
             -0.800018750759165E+01
             -0.353066912595494E+01
              0.602794938958525E+00
             -0.297961139497197E+01
              0.653916512595246E+01
             -0.124735624381711E+01
              0.139531446098541E+01
              0.553360832727511E+01
             -0.814557888029265E+01
              0.154807257165909E+02
              0.228039250843005E+01
              0.264793234400783E+01
              0.399686976555424E+01
              0.557170866383437E+00
             -0.399506272628038E+00
              0.333725296371136E+01
             -0.380403116709684E+01
              0.869519607604981E+01
              0.783273095189183E+01
             -0.390227172349188E+01
              0.210906017963580E+01
              0.725628011257859E+01
             -0.227503735089613E+01
              0.206971564183758E+01
              0.369142988727822E+01
              0.453020994517105E+01
             -0.773589920198933E+01
             -0.878886293337757E+00
             -0.284239319898697E+01
             -0.683040931950252E+00
             -0.105745976753038E+01
              0.498423744269694E+00
             -0.182161956672010E+01
             -0.304025980451134E+01
              0.161071631683254E+01
              0.887851976540482E+00
              0.566722360849618E+01
             -0.454327934061998E+01
              0.444098238544588E+01
              0.542997706939363E+01
             -0.103379993226454E+01
              0.770500525681514E+01
             -0.700175347834911E+01
             -0.106926994849107E+02
             -0.520844854478579E+00
             -0.461893082531063E+00
              0.581254144982395E+00
              0.805861948316762E+01
             -0.394297088170000E+00
              0.446101034550079E+01
              0.579352453250941E+01
              0.417424678925261E+01
             -0.299738884373923E+00
              0.641783509424401E+01
             -0.179598992245366E+01
             -0.374751800442721E+01
             -0.448229258528413E+01
              0.686989056277129E+00
              0.386807441455483E+01
             -0.484956220888545E+00
              0.370736546351181E+01
              0.196171842923299E+00
              0.595768362580792E+01
              0.167956951896810E+01
              0.813531381377679E+00
             -0.632792347737997E+00
              0.308699845344180E+01
              0.416068492592339E+01
              0.181400547932341E+01
             -0.243117919925503E+00
             -0.555845506094772E+01
              0.280791004157160E+01
              0.199172618673058E+01
              0.373772574143941E+01
              0.306726594643427E+01
              0.372685174765655E+01
             -0.676022185164303E+00
              0.327585106851820E+01
             -0.351153841504861E+01
             -0.328873020450331E+00
             -0.574583903507089E+01
             -0.349052577118083E+01
              0.440408569384556E+01
             -0.956438940991384E+01
              0.274942197812246E+01
              0.163356300572001E+01
              0.927689174137249E+01
             -0.201275165192096E+01
              0.353857351550873E+01
             -0.157974322425298E+01
             -0.500889664933308E+01
             -0.730792220645695E+01
             -0.139009185639108E+01
             -0.974553506300929E+01
              0.140361803540932E+01
             -0.244839005931690E+01
              0.341447729256376E+01
              0.273091217456750E+01
             -0.280829532939956E+01
             -0.323279631845865E+01
              0.458604874286386E+01
             -0.575734071842232E+01
             -0.145948206784069E+01
             -0.161487542185528E+01
              0.232646847814935E+01
             -0.134702400564294E+00
              0.361655525234280E+00
             -0.163457657293005E+01
              0.555745368994521E+01
             -0.597556274335523E+01
              0.101849841708957E+01
              0.619862032529814E+01
             -0.332569968725110E+01
              0.309897092448765E+00
             -0.542530367928528E+00
             -0.714064743562390E+01
             -0.448404832157260E+01
             -0.378323265520218E+00
              0.309275588086107E+01
              0.341442988619543E+01
              0.999630991288310E+00
             -0.679384568540570E+00
              0.159534103439613E+01
             -0.436803437494720E+01
             -0.151625762273426E+00
             -0.573297123343299E+01
             -0.301222868014473E+01
              0.513863125134677E+01
             -0.313702878581882E+01
              0.712050971709312E+01
             -0.248574235071117E+01
              0.350042066476196E+01
              0.280332772611834E+01
             -0.641713110648374E+01
             -0.283222386446459E+01
              0.823892059203942E+00
             -0.401966080879485E+01
             -0.434009138860771E+01
             -0.898857394298861E+01
             -0.597375828640471E+01
             -0.515301725525033E+01
             -0.442943120817678E+01
             -0.219215873104694E-01
              0.227203985774909E+01
              0.116011874713840E+01
              0.243051861668169E+01
             -0.612911150854483E+01
              0.125542314300348E+01
              0.316528543157752E+01
             -0.720025900598742E+01
             -0.634214869607585E+01
             -0.418252714529179E+01
             -0.287964454263036E+01
              0.165889783598122E+01
              0.741934589483719E-01
             -0.402035586172513E+01
              0.323871083090354E+01
             -0.214900638673024E+01
              0.572372783353092E+01
             -0.896899855431960E+01
              0.641300869235093E+01
             -0.851589354424133E+00
             -0.489919616037272E+01
             -0.251745457197750E+01
             -0.241519655071762E+00
              0.438184063145589E+01
             -0.737333445320995E+01
             -0.115241333225503E+01
             -0.184789965904967E+01
              0.471242758826148E+01
              0.844815191132684E+01
             -0.105888882159767E+02
              0.965998225995711E+01
              0.407958762661510E+01
             -0.791294809109516E+01
             -0.350364155400778E+01
              0.811603525310275E+01
              0.628302649250575E+01
             -0.237167694309261E+01
             -0.734016294974325E+00
              0.156278407346137E+01
              0.765659252656405E+01
             -0.594299059925230E+01
              0.153003454476076E+01
             -0.460276133316143E+00
              0.320667411968964E+01
             -0.745111865118467E+01
             -0.306077438453715E+00
             -0.318232887076084E+01
              0.484191462895950E+01
              0.404718456785517E+01
             -0.940333005193381E+01
             -0.500891996427520E+01
             -0.240325803907338E+01
             -0.403038624309514E+01
             -0.124000979854888E+01
             -0.205007641645366E+01
              0.496838990635538E+01
              0.430000548997444E+01
             -0.458161748169616E+00
             -0.409705002150456E+01
             -0.922636624558852E+01
              0.513111564019850E+01
             -0.506816126980396E+01
             -0.351321281157789E+01
              0.886206210898422E+00
             -0.368965996792917E+01
             -0.412328869315657E+01
             -0.325436995603278E+01
             -0.511008533862140E+01
             -0.232242182976733E+01
             -0.489670122228393E+01
              0.586822230451095E+01
              0.634849519333001E+01
             -0.737297783615496E+00
             -0.231590405828355E+01
             -0.191173922636608E+00
              0.432485668844541E+01
             -0.901678209717829E+01
             -0.215610713085908E+01
              0.571075014250205E+01
              0.722554545900310E+01
             -0.171032843556156E+01
              0.948405827595522E+00
              0.545569389815971E+01
              0.184122645421568E+01
              0.730027374977027E-02
             -0.394639917288143E+01
              0.198927164138748E+01
             -0.349324648536089E+01
             -0.148069257299669E+01
             -0.185838024868291E+01
             -0.168631951721646E+01
              0.241131542350249E+01
              0.874854714394656E+01
             -0.725884227053466E+00
              0.352283922307940E+00
             -0.960083579917739E+01
             -0.203503576911461E+01
             -0.370375214003869E+01
              0.192961878913884E-01
             -0.443728213477362E+01
              0.866852145268427E+01
              0.902797049902304E+01
              0.196967882622918E+01
             -0.232465369087824E+01
              0.171752079073751E+01
              0.264178150425631E+01
             -0.474685685298697E+01
             -0.101160404523943E+01
              0.169749530110990E+01
              0.127844732691262E+01
              0.530898488985341E+01
              0.414777547235819E+01
             -0.198544837681988E+01
              0.268484602037213E+01
             -0.104566068187986E+02
             -0.263372216445524E+00
              0.931725704580571E+01
              0.181384898705687E+01
              0.530527577266753E-01
              0.299068143773052E+01
             -0.245046984164214E+01
              0.960321632457920E+01
             -0.187581770427078E+01
              0.862807721371783E+01
              0.398749005644817E+01
             -0.486802190103509E+01
              0.342152072563165E+01
             -0.292187154367656E+01
             -0.713727533247203E+01
             -0.777539609160748E+00
             -0.573889973684443E+01
             -0.577426028865142E+01
             -0.156855106934756E+00
              0.365616338467558E+01
             -0.109903915035051E+01
             -0.366974760711128E+01
              0.836539086072825E+00
             -0.704063508761337E+01
             -0.396154375501673E+00
             -0.924721996085194E+01
              0.549539496204431E+01
             -0.174948314717422E+00
             -0.506141486789026E+01
             -0.233574867157928E+01
              0.190399013239377E+01
             -0.367056952271077E+01
             -0.446765760753822E+01
              0.939443814341425E+01
             -0.275462268432331E+01
             -0.439884607883887E+01
              0.346452219578465E+01
             -0.207375499134312E+01
              0.539829840051558E+01
             -0.559082695073698E-01
              0.292384849637788E+00
              0.110853781335100E+02
             -0.144207916546946E+01
             -0.373644458613751E+01
             -0.424449295758723E+01
             -0.575206752338658E+01
             -0.377790592776577E+01
              0.262372660297479E+01
              0.295752395600267E+01
              0.282234695616887E+01
              0.749432669249725E+01
              0.109469126412321E+00
              0.224572345252197E+01
             -0.654136730207628E+01
             -0.303662286046489E-01
             -0.238233051423301E+01
             -0.337690482362071E+01
              0.594343623996707E-02
              0.341369256101315E+01
              0.406507859624894E+01
             -0.283424800131072E+00
              0.979110086877022E+00
              0.329622119146362E+01
              0.400910901837868E+01
             -0.197783093889799E+01
             -0.941135216666808E+00
              0.308996850066556E-02
             -0.272312808601995E+01
             -0.852694793511617E+00
             -0.349693570572902E+01
              0.790717655718558E+01
              0.664168107182802E+01
             -0.229460965998533E+01
              0.170685751660239E+01
             -0.637193334363854E+00
             -0.301102592297500E+01
              0.360135554563576E+01
             -0.927682630595989E+00
              0.339485060697117E+01
             -0.513256271134966E+01
              0.178960940334165E+01
             -0.111254174662722E+01
             -0.549243460378577E+01
             -0.265219242731028E+01
              0.254663357896265E+01
             -0.101670586611892E+02
              0.377995473197480E+01
              0.477311021842857E+01
             -0.898907475263252E+00
             -0.636572216240491E+00
             -0.264260207126149E+00
              0.239490538922156E+01
             -0.369054338200558E+01
              0.375866443622665E+01
              0.306401910970662E+01
             -0.104952704903444E+02
             -0.354999007197367E+01
              0.254958995460920E+01
             -0.965787713217164E+00
              0.469958320759805E+01
             -0.646435617058738E+01
             -0.838076594953833E+00
             -0.421327771923374E+01
             -0.135092442277768E+02
              0.816150457508163E+01
             -0.606584401405727E+01
             -0.671777478958464E+01
              0.985262906578744E+00
              0.133677093687848E+02
              0.362608421568330E+00
             -0.317416636113468E+01
             -0.143847632711690E+00
             -0.209302206567136E+00
             -0.904352851857531E+01
             -0.594774462611607E+01
              0.886596861532453E+01
             -0.149741754824537E+01
             -0.386160083196891E+01
              0.551277719466411E+01
             -0.348178674395004E+01
              0.363412455050898E+01
              0.553963192126627E+01
             -0.570697299659497E+01
             -0.285720847226847E+01
             -0.299096738000119E+01
             -0.170719391390028E+01
             -0.231158680046434E+01
             -0.158076948220233E+01
              0.155591079988402E+01
             -0.362313796417310E+01
              0.311386703323074E+01
              0.607964134548365E+01
             -0.840817217527234E+00
             -0.198862789994353E+01
              0.164529219806460E+01
              0.571952865549838E+01
              0.525388922989704E+01
              0.902143603119171E+00
             -0.850415924573078E+00
             -0.949604840482873E+00
             -0.552386345048660E+01
              0.440994141771283E+01
             -0.258229982561564E+01
              0.210116610140108E+01
             -0.180310058941066E+01
              0.277314012674502E+01
              0.172247011409658E+01
             -0.848111773755313E+01
             -0.304552179434825E+01
             -0.819983860938175E+01
             -0.368365220186139E+01
              0.357481872992114E+00
             -0.168467192212078E+01
              0.335632826718811E+01
             -0.296158640182180E+01
              0.285946105268646E+00
              0.841319498190835E+00
              0.749026098413340E+01
              0.388047383423264E+01
             -0.288695332801205E+01
             -0.505785903429018E+00
              0.155304263310087E+01
              0.398161797081837E+01
              0.686148534670323E-01
              0.599733136460979E+01
              0.296615677087687E+01
              0.927386524221151E+01
              0.590788216417856E+00
              0.716715867055920E+01
             -0.241737286156869E+01
             -0.400640906840349E+01
              0.650807239458615E+00
              0.560279639181104E+00
              0.262517062108730E+01
             -0.182622772983752E+01
             -0.140702531403213E+01
              0.258559032313280E+01
             -0.527088472892308E+01
             -0.574677426212557E+01
              0.778614929936287E+01
             -0.771943292889830E+00
             -0.432133396848895E+01
             -0.614044323972390E+00
             -0.143845758198641E+01
              0.421052307595684E+01
              0.379415301102615E+01
             -0.226117270545113E+01
             -0.337677312350237E-02
             -0.286652011946691E+01
             -0.373215590008906E+01
             -0.237744289513161E+01
             -0.977339558135344E+01
              0.258776946595951E-01
             -0.709903037988803E+01
             -0.585095065319667E+01
             -0.419058995888803E+01
              0.203646489306970E+01
             -0.406363414809602E+01
              0.223150128537125E+01
             -0.655253581409182E+01
              0.109645145392484E+00
             -0.410114383887807E+01
              0.524617169324276E+00
              0.940050915333030E+00
              0.384858459567621E+01
             -0.244918022664451E+01
             -0.208757341726867E+01
              0.312694522824755E+01
              0.673588198092792E+01
              0.324793461262216E+01
              0.981578655666141E+00
             -0.770608212354784E+01
             -0.177522340368221E+01
             -0.305525195906467E+01
             -0.663084656008142E+01
              0.474720803910920E+01
             -0.380362957892646E+01
             -0.516054329160990E+00
             -0.317743925387886E+01
             -0.104576399981080E+02
              0.571728188940056E+01
             -0.213874128280899E+01
              0.422871502551870E+01
             -0.764828064947839E+01
              0.702771814282204E+01
              0.273857407866231E+00
             -0.291999357107048E+01
              0.717581326563788E+00
             -0.230712724140138E+01
             -0.726203219587424E+01
              0.185982654688046E+01
              0.383174205115762E+01
              0.100111733439249E+00
             -0.355695271733191E+01
             -0.161245740020670E+01
              0.219074407375572E+01
              0.346782285381833E+01
              0.660044730107799E+01
              0.269130455372745E+01
             -0.225935591515630E+01
              0.990522708718013E+01
              0.225540790692549E+01
              0.483818629776833E+01
             -0.168491015100138E+01
              0.281713045071155E+01
              0.214765476382200E+01
             -0.692530880062698E+01
             -0.213390954758479E+01
             -0.407710274342641E+01
             -0.404123820093136E+01
             -0.113329723528788E+01
             -0.116074467195784E+01
             -0.466350888081300E+01
             -0.119405850884123E+02
             -0.284604993875179E+01
              0.162047544859998E+01
              0.388232712109968E+00
              0.141490388414812E+01
              0.436025267151259E+01
              0.124660329919079E+01
              0.304692927179082E+01
             -0.463614016624895E+01
              0.482413663638442E+01
             -0.411800815623470E+01
             -0.734861897330281E+01
              0.159558606594494E+01
             -0.415760198770391E+01
             -0.434175054115717E+01
             -0.168401140886676E+02
             -0.117306722346945E+01
              0.868376001970275E+01
              0.448694367717400E+01
             -0.145479770437233E+01
             -0.819114897673465E+00
              0.387759339647717E+01
              0.661890360878750E+01
             -0.452994786842467E+01
             -0.880579904803589E+00
             -0.343233643861632E+01
             -0.371729694132849E+01
             -0.342259641941165E+01
              0.116196870014953E+01
              0.729642038101620E+01
             -0.712288155671010E+01
             -0.567837374065094E+01
              0.291093291324501E+00
             -0.113378005425006E+01
             -0.205556954555117E+01
             -0.931420806351546E+01
              0.644316983125192E+01
              0.252424582030041E+01
              0.441700418765610E+00
              0.519686397842432E+01
             -0.329867099445971E+01
              0.353808074383306E+01
              0.286099776678835E+01
              0.390933873667908E+00
             -0.865407394116668E+00
              0.118543628999823E+01
             -0.153925435291962E+01
              0.478753057967712E+01
             -0.426763789145448E+01
              0.436746229657569E+01
              0.114039992949881E+01
              0.169559234037331E+01
              0.233504586362505E+01
             -0.858277964638760E+01
              0.895211876272644E+00
             -0.712398803693704E+01
             -0.518280656381037E+01
             -0.502461088470022E+01
             -0.519970549027281E+01
              0.477443162490943E+00
              0.180917939524821E+01
              0.498198765256460E+01
              0.893007085773768E+00
              0.157082214550460E+01
             -0.738257977954182E+01
             -0.277289520954590E+01
[...]
  180          overl                                 0.000599                         31   4
  181          redis_proj                            0.055520                         93   4
  182            m_alltoall_d                          0.054447                       93   5
  183        m_sumb_d                              0.171048                          545   3
  184      rotate_active_occupied_orbital        0.000183                             31   2
  185      force_and_stress                    484.504563                             31   2
  186        forloc                                1.391890                           31   3
  187          m_sumb_d                              0.016592                         31   4
  188        fornlr                               12.617964                           31   3
  189          rspher_all                            0.312288                         93   4
  190          phaser                                0.000054                         93   4
  191          rpro_isp                             11.877652                         93   4
  192            fftwav_mpi                           11.756347                       93   5
  193              fftwav                               11.755857                     93   6
  194                fft3d                                 9.150653                   93   7
  195            rpromu                                0.026523                       93   5
  196              rpromu_gemm                           0.007652                    465   6
  197          m_sumb_d                              0.424056                         31   4
  198        fordep                                0.047879                           31   3
  199          setdij_                               0.046328                        186   4
  200            m_sumb_d                              0.019236                      186   5
  201        setdij_                               0.141513                          620   3
  202          m_sumb_d                              0.058183                        620   4
  203        set_dd_magatom                        0.000068                           31   3
  204        set_dd_paw                            0.212376                           31   3
  205          set_rsgf_all                          0.000046                         31   4
  206          m_sumb_d                              0.209086                        217   4
  207        strkin                                0.106229                           31   3
  208          m_sumb_d                              0.006599                         31   4
  209        strelo                                0.839965                           31   3
  210          m_sumb_d                              0.061012                         62   4
  211        strnlr                               32.647542                           31   3
  212          rspher_all                            0.934160                        279   4
  213          phaser                                0.000137                        279   4
  214          rpro_isp                             31.290842                        279   4
  215            fftwav_mpi                           31.183087                      279   5
  216              fftwav                               31.181595                    279   6
  217                fft3d                                25.907292                  279   7
  218            rpromu                                0.079871                      279   5
  219              rpromu_gemm                           0.023719                   1395   6
  220          m_sumb_d                              0.408369                         31   4
  221        fft3d_mpi                            69.006406                         2201   3
  222          fftbrc_mpi                           63.532195                       2201   4
  223            fftbas_plan_mpi                      63.525621                     2201   5
  224              dfftw_execute                        21.446607                   6603   6
  225              map_forward                          20.588753                   2170   6
  226                map_gather                            2.230077                 1085   7
  227                m_alltoallv_z                         7.646682                 1085   7
  228                map_scatter                          10.684518                 1085   7
  229              map_backward                         19.872958                   2232   6
  230                map_gather                            7.792851                 1116   7
  231                m_alltoallv_z                         8.253705                 1116   7
  232                map_scatter                           3.795587                 1116   7
  233        ggaall_grid                           4.089434                           31   3
  234        m_sumb_d                              0.226532                          186   3
  235        forhar                                0.388837                           31   3
  236          m_sumb_d                              0.027083                         31   4
  237        strehar                               1.400225                           31   3
  238          m_sumb_d                              0.859593                         31   4
  239        m_bcast_d                             0.053848                           62   3
  240      potlok                             1268.345651                             61   2
  241        fft3d_mpi                           404.820877                        12389   3
  242          fftbrc_mpi                          371.706712                      12389   4
  243            fftbas_plan_mpi                     371.665952                    12389   5
  244              dfftw_execute                       122.129503                  37167   6
  245              map_forward                         126.214795                  12450   6
  246                map_gather                           19.188212                 6286   7
  247                m_alltoallv_z                        43.936038                 6286   7
  248                map_scatter                          62.907657                 6286   7
  249              map_backward                        114.575205                  12328   6
  250                map_gather                           42.195323                 6164   7
  251                m_alltoallv_z                        52.122586                 6164   7
  252                map_scatter                          20.095620                 6164   7
  253        ggaall_grid                          71.754866                         1053   3
  254        m_sumb_d                              1.264720                         5326   3
  255        pothar                                0.344190                           61   3
  256          m_sumb_d                              0.025536                         61   4
  257        m_bcast_d                             1.708714                           61   3
  258      potlok_metagga                        0.000281                             61   2
  259      set_dd_magatom                        0.000030                             31   2
  260      set_dd_paw                            0.430943                             61   2
  261        set_rsgf_all                          0.000119                           61   3
  262        m_sumb_d                              0.421460                          427   3
  263      m_sumb_d                              0.001557                             31   2
  264      wavpre_noio                           3.712384                             30   2
  265        stufak                                0.737011                           30   3
  266      eddiag                               10.996265                             30   2
  267        overl                                 0.000406                           30   3
  268        redis_proj                            0.046439                           90   3
  269          m_alltoall_d                          0.045449                         90   4
  270        fftwav_mpi                            4.629767                           30   3
  271          fftwav                                4.629628                         30   4
  272            fft3d                                 3.373287                       30   5
  273        hamilt_local                          4.706433                           30   3
  274          vhamil                                1.781293                         30   4
  275          kinhamil                              2.924656                         30   4
  276            fftext_mpi                            2.861494                       30   5
  277              fft3d_mpi                             2.623541                     30   6
  278                fft3d                                 2.622441                   30   7
  279        redis_pw                              0.944582                           90   3
  280          m_alltoall_d                          0.746810                         90   4
  281        orth1                                 0.118166                           30   3
  282        m_sumb_d                              0.045209                           30   3
  283        shift_bands_between_low_high          0.000036                           30   3
  284        lincom                                0.179966                           30   3
 
 Flat profile
 ============
 
             routine name                   CPU           calls
 ---------------------------------------------------------------
 potlok                               6059.158889         513
 dfftw_execute                         493.569912      145749
 force_and_stress                      361.333855          31
 m_alltoallv_z                         355.024609       49579
 map_scatter                           317.067122       49579
 map_gather                            226.351243       49579
 fft3d                                 193.307686        2138
 fft3d_mpi                             184.985916       49096
 ggaall_grid                           161.056151        1536
 m_sumb_d                               52.997116       21305
 edwav                                  44.844305         452
 fftwav                                 40.277091        1625
 soft_charge                            35.480627         483
 fftbas_plan_mpi                        35.474386       48583
 eccp                                   34.175764         904
 m_alltoall_d                           23.751706        8205
 total_time                             21.123168           1
 vhamil                                 17.205884         287
 elmin_all                              16.217930          31
 m_bcast_d                              14.329080         638
 lincom                                  7.358711        1448
 pw_charge                               5.421121         483
 redis_pw                                5.375445        2279
 w1_dscal                                4.910573         226
 augmentation_charge                     4.795707         483
 fftext_mpi                              3.335289         513
 wavpre_noio                             2.975373          30
 pothar                                  2.666337         513
 orth1                                   2.526794         770
 fft_gq                                  1.687975         483
 set_charge                              1.434724         483
 forloc                                  1.375298          31
 rspher_all                              1.305169         404
 eddiag                                  1.119947         287
 strelo                                  0.778953          31
 stufak                                  0.763382          31
 map_forward                             0.662124       48130
 map_backward                            0.654186       49036
 kinhamil                                0.550189         287
 strehar                                 0.540633          31
 forhar                                  0.361754          31
 m_bcast_z                               0.259480          65
 setdij_                                 0.248771        1320
 rpro_isp                                0.186763         403
 fftbrc_mpi                              0.165807       48583
 rpro1                                   0.139207         226
 racc0                                   0.120804         226
 choleski                                0.111670         483
 strkin                                  0.099630          31
 rpromu                                  0.080618         403
 redis_proj                              0.079756        5926
 set_dd_paw                              0.077555         544
 orthch                                  0.049278         483
 rpromu_gemm                             0.042509        2015
 densta                                  0.036372         484
 overl                                   0.031945        1222
 rsp                                     0.020620          31
 strnlr                                  0.014034          31
 depsum                                  0.012254         483
 fftwav_mpi                              0.009080        1625
 fewald                                  0.007112          31
 redis_pw_all                            0.006863         452
 brgrid                                  0.005356           1
 hamilt_local                            0.004893         287
 fornlr                                  0.003914          31
 rcp                                     0.003884          31
 redis_pw_over_bands                     0.002379         513
 potlok_metagga                          0.002153         513
 fordep                                  0.001551          31
 set_rsgf_all                            0.000862         544
 proall                                  0.000533          31
 phaser                                  0.000434         629
 crpa_reader                             0.000248           1
 rotate_active_occupied_orbital          0.000183          31
 set_dd_magatom                          0.000098          62
 shift_bands_between_low_high            0.000075          61
 vectorpot                               0.000016           1
 ---------------------------------------------------------------
  summed up times    8740.15883278847     
 
 Accumulative profile
 ====================
 
             routine name                   CPU           calls
 ---------------------------------------------------------------
 total_time                           8740.158833           1
 potlok                               7717.482348         513
 elmin_all                            6931.414063          31
 fft3d_mpi                            1658.652794       49096
 fftbrc_mpi                           1428.969390       48583
 fftbas_plan_mpi                      1428.803583       48583
 dfftw_execute                         493.569912      145749
 force_and_stress                      484.504563          31
 map_forward                           461.534237       48130
 map_backward                          438.225048       49036
 m_alltoallv_z                         355.024609       49579
 map_scatter                           317.067122       49579
 edwav                                 234.307246         452
 map_gather                            226.351243       49579
 fft3d                                 193.307686        2138
 fftwav_mpi                            188.896369        1625
 fftwav                                188.887289        1625
 set_charge                            186.089029         483
 soft_charge                           165.176236         483
 ggaall_grid                           161.056151        1536
 eddiag                                 63.934230         287
 m_sumb_d                               52.997116       21305
 fft_gq                                 52.982495         483
 rpro_isp                               48.069424         403
 fftext_mpi                             48.044677         513
 hamilt_local                           45.409455         287
 eccp                                   34.175764         904
 strnlr                                 32.647542          31
 kinhamil                               28.198679         287
 redis_pw                               24.236382        2279
 m_alltoall_d                           23.751706        8205
 augmentation_charge                    19.346327         483
 vhamil                                 17.205884         287
 m_bcast_d                              14.329080         638
 fornlr                                 12.617964          31
 lincom                                  7.358711        1448
 pw_charge                               5.421121         483
 redis_proj                              4.970525        5926
 w1_dscal                                4.910573         226
 proall                                  4.901476          31
 redis_pw_over_bands                     4.686351         513
 redis_pw_all                            4.683972         452
 orthch                                  4.610593         483
 set_dd_paw                              3.820263         544
 wavpre_noio                             3.712384          30
 pothar                                  2.919428         513
 orth1                                   2.526794         770
 strehar                                 1.400225          31
 forloc                                  1.391890          31
 densta                                  1.351931         484
 rspher_all                              1.305169         404
 strelo                                  0.839965          31
 stufak                                  0.763382          31
 setdij_                                 0.528113        1320
 forhar                                  0.388837          31
 m_bcast_z                               0.259480          65
 rpro1                                   0.139207         226
 depsum                                  0.131742         483
 rpromu                                  0.123127         403
 racc0                                   0.120804         226
 choleski                                0.111670         483
 strkin                                  0.106229          31
 fordep                                  0.047879          31
 fewald                                  0.047593          31
 rpromu_gemm                             0.042509        2015
 overl                                   0.031945        1222
 rsp                                     0.020620          31
 brgrid                                  0.005356           1
 rcp                                     0.003884          31
 potlok_metagga                          0.002153         513
 set_rsgf_all                            0.000862         544
 phaser                                  0.000434         629
 crpa_reader                             0.000248           1
 rotate_active_occupied_orbital          0.000183          31
 set_dd_magatom                          0.000098          62
 shift_bands_between_low_high            0.000075          61
 vectorpot                               0.000016           1
 ---------------------------------------------------------------
 
Profiling took   0.861547  0.295458  0.013177  0.012580 seconds
Profiling took   1.561766 seconds
