 vasp.6.3.2 27Jun22 (build Oct 04 2023 22:42:02) gamma-only                     
  
 executed on           IFC15_impi date 2023.10.20  16:36:04
 running   64 mpi-ranks, with    1 threads/rank
 distrk:  each k-point on   64 cores,    1 groups
 distr:  one band on NCORE=   2 cores,   32 groups


--------------------------------------------------------------------------------------------------------


 INCAR:
   ENCUT = 500.000000
   SIGMA = 0.010000
   EDIFF = 1.00e-05
   ALGO = A
   ISMEAR = 0
   NELM = 200
   NSW = 500
   NCORE = 2
   LCHARG = .TRUE.
   LWAVE = .TRUE.
   LREAL = Auto
   IBRION = 2
   EDIFFG = -0.05
   GGA = BF
   LUSE_VDW = .TRUE.
   ZAB_VDW = -1.8867
   LBEEFENS = .TRUE.

 POTCAR:    PAW_PBE H 15Jun2001                   
 -----------------------------------------------------------------------------
|                                                                             |
|               ----> ADVICE to this user running VASP <----                  |
|                                                                             |
|     You have switched on vdW-DFT.                                           |
|     This routine was written and supplied by Jiri Klimes. We recommend      |
|     that you carefully read and cite the following publications:            |
|       J. Klimes, D.R. Bowler, A. Michelides                                 |
|          J. Phys.: Cond Matt. 22 022201 (2010)                              |
|       J. Klimes, D.R. Bowler, A. Michelides                                 |
|          Phys. Rev. B. 83, 195131 (2011)                                    |
|     and references therein.                                                 |
|                                                                             |
 -----------------------------------------------------------------------------

 POTCAR:    PAW_PBE H 15Jun2001                   
   SHA256 =  030f79b5d3ab3cf0e668861823c8fb652ff669f3e15e46930bd03bfd63a607b6 H/POTCAR              
   COPYR  = (c) Copyright 15Jun2001 Georg Kresse                                                    
   COPYR  = This file is part of the software VASP. Any use, copying, and all other rights are regul
   COPYR  = If you do not have a valid VASP license, you may not use, copy or distribute this file. 
   VRHFIN =H: ultrasoft test                                                                        
   LEXCH  = PE                                                                                      
   EATOM  =    12.4884 eV,    0.9179 Ry                                                             
                                                                                                    
   TITEL  = PAW_PBE H 15Jun2001                                                                     
   LULTRA =        F    use ultrasoft PP ?                                                          
   IUNSCR =        0    unscreen: 0-lin 1-nonlin 2-no                                               
   RPACOR =    0.000    partial core radius                                                         
   POMASS =    1.000; ZVAL   =    1.000    mass and valenz                                          
   RCORE  =    1.100    outmost cutoff radius                                                       
   RWIGS  =    0.700; RWIGS  =    0.370    wigner-seitz radius (au A)                               
   ENMAX  =  250.000; ENMIN  =  200.000 eV                                                          
   RCLOC  =    0.701    cutoff for local pot                                                        
   LCOR   =        T    correct aug charges                                                         
   LPAW   =        T    paw PP                                                                      
   EAUG   =  400.000                                                                                
   RMAX   =    1.123    core radius for proj-oper                                                   
   RAUG   =    1.200    factor for augmentation sphere                                              
   RDEP   =    1.112    radius for radial grids                                                     
   RDEPT  =    0.926    core radius for aug-charge                                                  
                                                                                                    
   Atomic configuration                                                                             
    2 entries                                                                                       
     n  l   j            E        occ.                                                              
     1  0  0.50        -6.4927   1.0000                                                             
     2  1  0.50        -3.4015   0.0000                                                             
   Description                                                                                      
     l       E           TYP  RCUT    TYP  RCUT                                                     
     0     -6.4927494     23  1.100                                                                 
     0      6.8029130     23  1.100                                                                 
     1     -4.0817478     23  1.100                                                                 
  local pseudopotential read in
  atomic valenz-charges read in
  non local Contribution for L=           0  read in
    real space projection operators read in
  non local Contribution for L=           0  read in
    real space projection operators read in
  non local Contribution for L=           1  read in
    real space projection operators read in
    PAW grid and wavefunctions read in
 
   number of l-projection  operators is LMAX  =           3
   number of lm-projection operators is LMMAX =           5
 
 -----------------------------------------------------------------------------
|                                                                             |
|               ----> ADVICE to this user running VASP <----                  |
|                                                                             |
|     You have a (more or less) 'small supercell' and for smaller cells       |
|     it is recommended to use the reciprocal-space projection scheme!        |
|     The real-space optimization is not efficient for small cells and it     |
|     is also less accurate ...                                               |
|     Therefore, set LREAL=.FALSE. in the INCAR file.                         |
|                                                                             |
 -----------------------------------------------------------------------------

 Optimization of the real space projectors (new method)

 maximal supplied QI-value         = 34.20
 optimisation between [QCUT,QGAM] = [ 11.29, 22.57] = [ 35.68,142.71] Ry 
 Optimized for a Real-space Cutoff    1.16 Angstroem

   l    n(q)    QCUT    max X(q) W(low)/X(q) W(high)/X(q)  e(spline) 
   0      8    11.287    19.460    0.40E-03    0.73E-03    0.16E-06
   0      8    11.287    12.209    0.38E-03    0.70E-03    0.15E-06
   1      7    11.287     4.655    0.22E-03    0.25E-04    0.22E-06
 -----------------------------------------------------------------------------
|                                                                             |
|               ----> ADVICE to this user running VASP <----                  |
|                                                                             |
|     You enforced a specific xc type in the INCAR file but a different       |
|     type was found in the POTCAR file.                                      |
|     I HOPE YOU KNOW WHAT YOU ARE DOING!                                     |
|                                                                             |
 -----------------------------------------------------------------------------

  PAW_PBE H 15Jun2001                   :
 energy of atom  1       EATOM=  -12.4884
 kinetic energy error for atom=    0.0020 (will be added to EATOM!!)
 
 
 POSCAR: H2
  positions in direct lattice
  No initial velocities read in
 exchange correlation table for  LEXCH =       17
   RHO(1)=    0.500       N(1)  =     2000
   RHO(2)=  100.500       N(2)  =     4000

 VTST: version 4.1, (05/19/21)

 CHAIN: initializing optimizer
 
 OPT: Using VASP Conjugate-Gradient optimizer
 CHAIN: Read ICHAIN            0
 
 POSCAR: H2
  positions in direct lattice
  No initial velocities read in
 


--------------------------------------------------------------------------------------------------------


 ion  position               nearest neighbor table
   1  0.500  0.500  0.500-   2 0.73
   2  0.500  0.500  0.524-   1 0.73
 
  LATTYP: Found a simple orthorhombic cell.
 ALAT       =    22.3170261383
 B/A-ratio  =     1.0606601451
 C/A-ratio  =     1.3442651281
  
  Lattice vectors:
  
 A1 = (   0.0000000000, -22.3170261383,   0.0000000000)
 A2 = (  23.6707801819,   0.0000000000,   0.0000000000)
 A3 = (   0.0000000000,   0.0000000000,  30.0000000000)


Analysis of symmetry for initial positions (statically):
=====================================================================
 Subroutine PRICEL returns:
 Original cell was already a primitive cell.
 

 Routine SETGRP: Setting up the symmetry group for a 
 simple orthorhombic supercell.


 Subroutine GETGRP returns: Found  8 space group operations
 (whereof  4 operations were pure point group operations)
 out of a pool of  8 trial point group operations.


The static configuration has the point symmetry C_2v.
 The point group associated with its full space group is D_2h.


Analysis of symmetry for dynamics (positions and initial velocities):
=====================================================================
 Subroutine PRICEL returns:
 Original cell was already a primitive cell.
 

 Routine SETGRP: Setting up the symmetry group for a 
 simple orthorhombic supercell.


 Subroutine GETGRP returns: Found  8 space group operations
 (whereof  4 operations were pure point group operations)
 out of a pool of  8 trial point group operations.


The dynamic configuration has the point symmetry C_2v.
 The point group associated with its full space group is D_2h.


 Subroutine INISYM returns: Found  8 space group operations
 (whereof  4 operations are pure point group operations),
 and found     1 'primitive' translations


----------------------------------------------------------------------------------------

                                     Primitive cell                                     

  volume of cell :   15847.8426

  direct lattice vectors                    reciprocal lattice vectors
    23.670780182  0.000000000  0.000000000     0.042246178  0.000000000  0.000000000
     0.000000000 22.317026138  0.000000000     0.000000000  0.044808838  0.000000000
     0.000000000  0.000000000 30.000000000     0.000000000  0.000000000  0.033333333

  length of vectors
    23.670780182 22.317026138 30.000000000     0.042246178  0.044808838  0.033333333

  position of ions in fractional coordinates (direct lattice)
     0.500000419  0.499999414  0.499626001
     0.500000419  0.499999414  0.524007332

  ion indices of the primitive-cell ions
   primitive index   ion index
                 1           1
                 2           2

----------------------------------------------------------------------------------------

 
 
 KPOINTS: KPOINTS created by Atomic Simulation Env

Automatic generation of k-mesh.
 Grid dimensions read from file:
 generate k-points for:    1    1    1

 Generating k-lattice:

  Cartesian coordinates                     Fractional coordinates (reciprocal lattice)
     0.042246178  0.000000000  0.000000000     1.000000000  0.000000000  0.000000000
     0.000000000  0.044808838  0.000000000     0.000000000  1.000000000  0.000000000
     0.000000000  0.000000000  0.033333333     0.000000000  0.000000000  1.000000000

  Length of vectors
     0.042246178  0.044808838  0.033333333

  Shift w.r.t. Gamma in fractional coordinates (k-lattice)
     0.000000000  0.000000000  0.000000000

 
 Subroutine IBZKPT returns following result:
 ===========================================
 
 Found      1 irreducible k-points:
 
 Following reciprocal coordinates:
            Coordinates               Weight
  0.000000  0.000000  0.000000      1.000000
 
 Following cartesian coordinates:
            Coordinates               Weight
  0.000000  0.000000  0.000000      1.000000
 


--------------------------------------------------------------------------------------------------------




 Dimension of arrays:
   k-points           NKPTS =      1   k-points in BZ     NKDIM =      1   number of bands    NBANDS=     32
   number of dos      NEDOS =    301   number of ions     NIONS =      2
   non local maximal  LDIM  =      3   non local SUM 2l+1 LMDIM =      5
   total plane-waves  NPLWV = ******
   max r-space proj   IRMAX =   1285   max aug-charges    IRDMAX=   1108
   dimension x,y,z NGX =   140 NGY =  126 NGZ =  168
   dimension x,y,z NGXF=   280 NGYF=  252 NGZF=  336
   support grid    NGXF=   280 NGYF=  252 NGZF=  336
   ions per type =               2
   NGX,Y,Z   is equivalent  to a cutoff of   9.83,  9.39,  9.31 a.u.
   NGXF,Y,Z  is equivalent  to a cutoff of  19.67, 18.77, 18.62 a.u.

 SYSTEM =  unknown system                          
 POSCAR =  H2                                      

 Startparameter for this run:
   NWRITE =      2    write-flag & timer
   PREC   = normal    normal or accurate (medium, high low for compatibility)
   ISTART =      0    job   : 0-new  1-cont  2-samecut
   ICHARG =      2    charge: 1-file 2-atom 10-const
   ISPIN  =      1    spin polarized calculation?
   LNONCOLLINEAR =      F non collinear calculations
   LSORBIT =      F    spin-orbit coupling
   INIWAV =      1    electr: 0-lowe 1-rand  2-diag
   LASPH  =      F    aspherical Exc in radial PAW
 Electronic Relaxation 1
   ENCUT  =  500.0 eV  36.75 Ry    6.06 a.u.  43.16 40.69 54.70*2*pi/ulx,y,z
   ENINI  =  500.0     initial cutoff
   ENAUG  =  400.0 eV  augmentation charge cutoff
   NELM   =    200;   NELMIN=  2; NELMDL= -5     # of ELM steps 
   EDIFF  = 0.1E-04   stopping-criterion for ELM
   LREAL  =      T    real-space projection
   NLSPLINE    = F    spline interpolate recip. space projectors
   LCOMPAT=      F    compatible to vasp.4.4
   GGA_COMPAT  = T    GGA compatible to vasp.4.4-vasp.4.6
   LMAXPAW     = -100 max onsite density
   LMAXMIX     =    2 max onsite mixed and CHGCAR
   VOSKOWN=      0    Vosko Wilk Nusair interpolation
   ROPT   =   -0.00050
 Ionic relaxation
   EDIFFG = -.5E-01   stopping-criterion for IOM
   NSW    =    500    number of steps for IOM
   NBLOCK =      1;   KBLOCK =    500    inner block; outer block 
   IBRION =      2    ionic relax: 0-MD 1-quasi-New 2-CG
   NFREE  =      1    steps in history (QN), initial steepest desc. (CG)
   ISIF   =      2    stress and relaxation
   IWAVPR =     11    prediction:  0-non 1-charg 2-wave 3-comb
   ISYM   =      2    0-nonsym 1-usesym 2-fastsym
   LCORR  =      T    Harris-Foulkes like correction to forces

   POTIM  = 0.5000    time-step for ionic-motion
   TEIN   =    0.0    initial temperature
   TEBEG  =    0.0;   TEEND  =   0.0 temperature during run
   SMASS  =  -3.00    Nose mass-parameter (am)
   estimated Nose-frequenzy (Omega)   =  0.10E-29 period in steps = 0.13E+47 mass=  -0.128E-25a.u.
   SCALEE = 1.0000    scale energy and forces
   NPACO  =    256;   APACO  = 10.0  distance and # of slots for P.C.
   PSTRESS=    0.0 pullay stress

  Mass of Ions in am
   POMASS =   1.00
  Ionic Valenz
   ZVAL   =   1.00
  Atomic Wigner-Seitz radii
   RWIGS  =  -1.00
  virtual crystal weights 
   VCA    =   1.00
   NELECT =       2.0000    total number of electrons
   NUPDOWN=      -1.0000    fix difference up-down

 DOS related values:
   EMIN   =  10.00;   EMAX   =-10.00  energy-range for DOS
   EFERMI =   0.00
   ISMEAR =     0;   SIGMA  =   0.01  broadening in eV -4-tet -1-fermi 0-gaus

 Electronic relaxation 2 (details)
   IALGO  =     58    algorithm
   LDIAG  =      T    sub-space diagonalisation (order eigenvalues)
   LSUBROT=      F    optimize rotation matrix (better conditioning)
   TURBO    =      0    0=normal 1=particle mesh
   IRESTART =      0    0=no restart 2=restart with 2 vectors
   NREBOOT  =      0    no. of reboots
   NMIN     =      0    reboot dimension
   EREF     =   0.00    reference energy to select bands
   IMIX   =      4    mixing-type and parameters
     AMIX     =   0.40;   BMIX     =  1.00
     AMIX_MAG =   1.60;   BMIX_MAG =  1.00
     AMIN     =   0.10
     WC   =   100.;   INIMIX=   1;  MIXPRE=   1;  MAXMIX= -45

 Intra band minimization:
   WEIMIN = 0.0010     energy-eigenvalue tresh-hold
   EBREAK =  0.78E-07  absolut break condition
   DEPER  =   0.30     relativ break condition  

   TIME   =   0.40     timestep for ELM

  volume/ion in A,a.u.               =    7923.92     53473.26
  Fermi-wavevector in a.u.,A,eV,Ry     =   0.082116  0.155177  0.091745  0.006743
  Thomas-Fermi vector in A             =   0.611038
 
 Write flags
   LWAVE        =      T    write WAVECAR
   LDOWNSAMPLE  =      F    k-point downsampling of WAVECAR
   LCHARG       =      T    write CHGCAR
   LVTOT        =      F    write LOCPOT, total local potential
   LVHAR        =      F    write LOCPOT, Hartree potential only
   LELF         =      F    write electronic localiz. function (ELF)
   LORBIT       =      0    0 simple, 1 ext, 2 COOP (PROOUT), +10 PAW based schemes


 Dipole corrections
   LMONO  =      F    monopole corrections only (constant potential shift)
   LDIPOL =      F    correct potential (dipole corrections)
   IDIPOL =      0    1-x, 2-y, 3-z, 4-all directions 
   EPSILON=  1.0000000 bulk dielectric constant

 Exchange correlation treatment:
   GGA     =    BF    GGA type
   LEXCH   =    17    internal setting for exchange type
   LIBXC   =     F    Libxc                    
   VOSKOWN =     0    Vosko Wilk Nusair interpolation
   LHFCALC =     F    Hartree Fock is set to
   LHFONE  =     F    Hartree Fock one center treatment
   AEXX    =    0.0000 exact exchange contribution

 vdW DFT:
   LUSE_VDW   =     T    switch on vdW DFT
   Zab_VDW    =******    correlation parameter
   PARAM1     =0.1234
   PARAM2     =1.0000
   PARAM3     =0.0000
   -- rVV10 --
   BPARAM     = 6.3000
   CPARAM     = 0.0093

 Linear response parameters
   LEPSILON=     F    determine dielectric tensor
   LRPA    =     F    only Hartree local field effects (RPA)
   LNABLA  =     F    use nabla operator in PAW spheres
   LVEL    =     F    velocity operator in full k-point grid
   CSHIFT  =0.1000    complex shift for real part using Kramers Kronig
   OMEGAMAX=  -1.0    maximum frequency
   DEG_THRESHOLD= 0.2000000E-02 threshold for treating states as degnerate
   RTIME   =   -0.100 relaxation time in fs
  (WPLASMAI=    0.000 imaginary part of plasma frequency in eV, 0.658/RTIME)
   DFIELD  = 0.0000000 0.0000000 0.0000000 field for delta impulse in time
 
  Optional k-point grid parameters
   LKPOINTS_OPT  =     F    use optional k-point grid
   KPOINTS_OPT_MODE=     1    mode for optional k-point grid
 
 Orbital magnetization related:
   ORBITALMAG=     F  switch on orbital magnetization
   LCHIMAG   =     F  perturbation theory with respect to B field
   DQ        =  0.001000  dq finite difference perturbation B field
   LLRAUG    =     F  two centre corrections for induced B field



--------------------------------------------------------------------------------------------------------


 conjugate gradient relaxation of ions
 charge density and potential will be updated during run
 non-spin polarized calculation
 Conjugate gradient for all bands (Freysoldt, et al. PRB 79, 241103 (2009))
 preconditioned conjugated gradient                                        
 perform sub-space diagonalisation
    before iterative eigenvector-optimisation
 modified Broyden-mixing scheme, WC =      100.0
 initial mixing is a Kerker type mixing with AMIX =  0.4000 and BMIX =      1.0000
 Hartree-type preconditioning will be used
 using additional bands           31
 real space projection scheme for non local part
 no Harris-corrections to forces 
 use gradient corrections 
 use of overlap-Matrix (Vanderbilt PP)
 Gauss-broadening in eV      SIGMA  =   0.01


--------------------------------------------------------------------------------------------------------


  energy-cutoff  :      500.00
  volume of cell :    15847.84
      direct lattice vectors                 reciprocal lattice vectors
    23.670780182  0.000000000  0.000000000     0.042246178  0.000000000  0.000000000
     0.000000000 22.317026138  0.000000000     0.000000000  0.044808838  0.000000000
     0.000000000  0.000000000 30.000000000     0.000000000  0.000000000  0.033333333

  length of vectors
    23.670780182 22.317026138 30.000000000     0.042246178  0.044808838  0.033333333


 
 k-points in units of 2pi/SCALE and weight: KPOINTS created by Atomic Simulation Env
   0.00000000  0.00000000  0.00000000       1.000
 
 k-points in reciprocal lattice and weights: KPOINTS created by Atomic Simulation Env
   0.00000000  0.00000000  0.00000000       1.000
 
 position of ions in fractional coordinates (direct lattice) 
   0.50000042  0.49999941  0.49962600
   0.50000042  0.49999941  0.52400733
 
 position of ions in cartesian coordinates  (Angst):
  11.83540000 11.15850000 14.98878004
  11.83540000 11.15850000 15.72021996
 


--------------------------------------------------------------------------------------------------------


 use parallel FFT for orbitals z direction half grid
 k-point   1 :   0.0000 0.0000 0.0000  plane waves:  201172

 maximum and minimum number of plane-waves per node :    100594   100578

 maximum number of plane-waves:    201172
 maximum index in each direction: 
   IXMAX=   43   IYMAX=   40   IZMAX=   54
   IXMIN=  -43   IYMIN=  -40   IZMIN=    0


 real space projection operators:
  total allocation   :         94.69 KBytes
  max/ min on nodes  :         47.97         46.72


 parallel 3D FFT for wavefunctions:
    minimum data exchange during FFTs selected (reduces bandwidth)
 parallel 3D FFT for charge:
    minimum data exchange during FFTs selected (reduces bandwidth)


 total amount of memory used by VASP MPI-rank0   160421. kBytes
=======================================================================

   base      :      30000. kBytes
   nonlr-proj:         58. kBytes
   fftplans  :      45723. kBytes
   grid      :      79813. kBytes
   one-center:          0. kBytes
   wavefun   :       4827. kBytes
 
     INWAV:  cpu time      0.0006: real time      0.0010
 Broyden mixing: mesh for mixing (old mesh)
   NGX = 87   NGY = 81   NGZ =109
  (NGX  =280   NGY  =252   NGZ  =336)
  gives a total of 768123 points

 initial charge density was supplied:
 charge density of overlapping atoms calculated
 number of electron       2.0000000 magnetization 
 keeping initial charge density in first step


--------------------------------------------------------------------------------------------------------


 Maximum index for non-local projection operator          615
 Maximum index for augmentation-charges            0 (set IRDMAX)


--------------------------------------------------------------------------------------------------------


 First call to EWALD:  gamma=   0.071
 Maximum number of real-space cells 3x 3x 2
 Maximum number of reciprocal cells 3x 2x 3

    FEWALD:  cpu time      0.0063: real time      0.0063


--------------------------------------- Iteration      1(   1)  ---------------------------------------


vdW kernel read from vdw_kernel.bindat
  0.0000  0.2424  0.5071  0.7962  1.1119  1.4567  1.8333  2.2446  2.6937  3.1842
  3.7199  4.3049  4.9438  5.6415  6.4036  7.2358  8.1446  9.1372 10.2212 11.4050
 12.6979 14.1099 15.6519 17.3360 19.1751 21.1837 23.3773 25.7729 28.3892 31.2465
 34.3669 37.7748 41.4965 45.5611 50.0000
 
    POTLOK:  cpu time     15.5316: real time     15.5734
    SETDIJ:  cpu time      0.0087: real time      0.0087
    TRIAL :  cpu time      0.8079: real time      1.0124
    CORREC:  cpu time      0.0005: real time      0.0005
    --------------------------------------------
      LOOP:  cpu time     16.3550: real time     16.6036

 eigenvalue-minimisations  :    96
 total energy-change (2. order) :-0.3226779E+01  (-0.3183978E+02)
 number of electron       2.0000000 magnetization 
 augmentation part        2.0000000 magnetization 

 Free energy of the ion-electron system (eV)
  ---------------------------------------------------
  alpha Z        PSCENC =         0.00061489
  Ewald energy   TEWEN  =        16.51835301
  -Hartree energ DENC   =       -25.60258944
  -exchange      EXHF   =         0.00000000
  -V(xc)+E(xc)   XCENC  =         4.21852721
  PAW double counting   =         3.83046721       -3.86378238
  entropy T*S    EENTRO =        -0.00000000
  eigenvalues    EBANDS =       -24.11902630
  atomic energy  EATOM  =        25.79065728
  ---------------------------------------------------
  free energy    TOTEN  =        -3.22677853 eV

  energy without entropy =       -3.22677853  energy(sigma->0) =       -3.22677853


--------------------------------------------------------------------------------------------------------




--------------------------------------- Iteration      1(   2)  ---------------------------------------


    TRIAL :  cpu time      0.4942: real time      0.4954
    CORREC:  cpu time      0.0005: real time      0.0005
    --------------------------------------------
      LOOP:  cpu time      0.5013: real time      0.5197

 eigenvalue-minimisations  :    64
 total energy-change (2. order) :-0.4706020E+01  (-0.4706020E+01)
 number of electron       2.0000000 magnetization 
 augmentation part        2.0000000 magnetization 

 Free energy of the ion-electron system (eV)
  ---------------------------------------------------
  alpha Z        PSCENC =         0.00061489
  Ewald energy   TEWEN  =        16.51835301
  -Hartree energ DENC   =       -25.60258944
  -exchange      EXHF   =         0.00000000
  -V(xc)+E(xc)   XCENC  =         4.21852721
  PAW double counting   =         3.83046721       -3.86378238
  entropy T*S    EENTRO =        -0.00000000
  eigenvalues    EBANDS =       -28.82504670
  atomic energy  EATOM  =        25.79065728
  ---------------------------------------------------
  free energy    TOTEN  =        -7.93279893 eV

  energy without entropy =       -7.93279893  energy(sigma->0) =       -7.93279893


--------------------------------------------------------------------------------------------------------




--------------------------------------- Iteration      1(   3)  ---------------------------------------


    TRIAL :  cpu time      0.6576: real time      0.6588
    CORREC:  cpu time      0.0005: real time      0.0005
    --------------------------------------------
      LOOP:  cpu time      0.6647: real time      0.6821

 eigenvalue-minimisations  :    96
 total energy-change (2. order) :-0.7070603E-01  (-0.7070603E-01)
 number of electron       2.0000000 magnetization 
 augmentation part        2.0000000 magnetization 

 Free energy of the ion-electron system (eV)
  ---------------------------------------------------
  alpha Z        PSCENC =         0.00061489
  Ewald energy   TEWEN  =        16.51835301
  -Hartree energ DENC   =       -25.60258944
  -exchange      EXHF   =         0.00000000
  -V(xc)+E(xc)   XCENC  =         4.21852721
  PAW double counting   =         3.83046721       -3.86378238
  entropy T*S    EENTRO =        -0.00000000
  eigenvalues    EBANDS =       -28.89575273
  atomic energy  EATOM  =        25.79065728
  ---------------------------------------------------
  free energy    TOTEN  =        -8.00350496 eV

  energy without entropy =       -8.00350496  energy(sigma->0) =       -8.00350496


--------------------------------------------------------------------------------------------------------




--------------------------------------- Iteration      1(   4)  ---------------------------------------


    TRIAL :  cpu time      0.4881: real time      0.4885
    CORREC:  cpu time      0.0005: real time      0.0005
    --------------------------------------------
      LOOP:  cpu time      0.4943: real time      0.5111

 eigenvalue-minimisations  :    64
 total energy-change (2. order) :-0.3132374E-04  (-0.3132373E-04)
 number of electron       2.0000000 magnetization 
 augmentation part        2.0000000 magnetization 

 Free energy of the ion-electron system (eV)
  ---------------------------------------------------
  alpha Z        PSCENC =         0.00061489
  Ewald energy   TEWEN  =        16.51835301
  -Hartree energ DENC   =       -25.60258944
  -exchange      EXHF   =         0.00000000
  -V(xc)+E(xc)   XCENC  =         4.21852721
  PAW double counting   =         3.83046721       -3.86378238
  entropy T*S    EENTRO =        -0.00000000
  eigenvalues    EBANDS =       -28.89578405
  atomic energy  EATOM  =        25.79065728
  ---------------------------------------------------
  free energy    TOTEN  =        -8.00353628 eV

  energy without entropy =       -8.00353628  energy(sigma->0) =       -8.00353628


--------------------------------------------------------------------------------------------------------




--------------------------------------- Iteration      1(   5)  ---------------------------------------


    TRIAL :  cpu time      0.8448: real time      0.8482
    CORREC:  cpu time      0.0005: real time      0.0005
    CHARGE:  cpu time      1.3657: real time      1.3680
    --------------------------------------------
      LOOP:  cpu time      2.2172: real time      2.2384

 eigenvalue-minimisations  :   128
 total energy-change (2. order) :-0.1806103E-06  (-0.1805987E-06)
 number of electron       1.9999998 magnetization 
 augmentation part        0.0504707 magnetization 

 Free energy of the ion-electron system (eV)
  ---------------------------------------------------
  alpha Z        PSCENC =         0.00061489
  Ewald energy   TEWEN  =        16.51835301
  -Hartree energ DENC   =       -25.60258944
  -exchange      EXHF   =         0.00000000
  -V(xc)+E(xc)   XCENC  =         4.21852721
  PAW double counting   =         3.83046721       -3.86378238
  entropy T*S    EENTRO =        -0.00000000
  eigenvalues    EBANDS =       -28.89578423
  atomic energy  EATOM  =        25.79065728
  ---------------------------------------------------
  free energy    TOTEN  =        -8.00353646 eV

  energy without entropy =       -8.00353646  energy(sigma->0) =       -8.00353646


--------------------------------------------------------------------------------------------------------




--------------------------------------- Iteration      1(   6)  ---------------------------------------


    POTLOK:  cpu time     13.8239: real time     13.8675
    SETDIJ:  cpu time      0.0076: real time      0.0075
    TRIAL :  cpu time      0.3237: real time      0.3250
    CORREC:  cpu time     15.9297: real time     16.0633
    CHARGE:  cpu time      1.3610: real time      1.3946
    --------------------------------------------
      LOOP:  cpu time     31.4480: real time     31.6741

 eigenvalue-minimisations  :     0
 total energy-change (2. order) : 0.1107537E+01  (-0.2294759E+00)
 number of electron       1.9999998 magnetization 
 augmentation part        0.0452673 magnetization 

 Free energy of the ion-electron system (eV)
  ---------------------------------------------------
  alpha Z        PSCENC =         0.00061489
  Ewald energy   TEWEN  =        16.51835301
  -Hartree energ DENC   =       -35.73428687
  -exchange      EXHF   =         0.00000000
  -V(xc)+E(xc)   XCENC  =         5.66129888
  PAW double counting   =        27.01293826      -27.09223115
  entropy T*S    EENTRO =        -0.00000000
  eigenvalues    EBANDS =       -19.05334382
  atomic energy  EATOM  =        25.79065728
  ---------------------------------------------------
  free energy    TOTEN  =        -6.89599953 eV

  energy without entropy =       -6.89599953  energy(sigma->0) =       -6.89599953


--------------------------------------------------------------------------------------------------------




--------------------------------------- Iteration      1(   7)  ---------------------------------------


    POTLOK:  cpu time     14.4653: real time     14.4942
    SETDIJ:  cpu time      0.0074: real time      0.0074
    TRIAL :  cpu time      0.2898: real time      0.2905
    CORREC:  cpu time     15.8940: real time     15.9135
    CHARGE:  cpu time      1.3250: real time      1.3260
    --------------------------------------------
      LOOP:  cpu time     31.9900: real time     32.0564

 eigenvalue-minimisations  :     0
 total energy-change (2. order) :-0.2291840E+00  (-0.2369641E-01)
 number of electron       1.9999998 magnetization 
 augmentation part        0.0444326 magnetization 

 Free energy of the ion-electron system (eV)
  ---------------------------------------------------
  alpha Z        PSCENC =         0.00061489
  Ewald energy   TEWEN  =        16.51835301
  -Hartree energ DENC   =       -33.41784654
  -exchange      EXHF   =         0.00000000
  -V(xc)+E(xc)   XCENC  =         5.31614851
  PAW double counting   =        24.04023168      -24.10690421
  entropy T*S    EENTRO =        -0.00000000
  eigenvalues    EBANDS =       -21.26643811
  atomic energy  EATOM  =        25.79065728
  ---------------------------------------------------
  free energy    TOTEN  =        -7.12518350 eV

  energy without entropy =       -7.12518350  energy(sigma->0) =       -7.12518350


--------------------------------------------------------------------------------------------------------




--------------------------------------- Iteration      1(   8)  ---------------------------------------


    POTLOK:  cpu time     14.4849: real time     14.4999
    SETDIJ:  cpu time      0.0076: real time      0.0087
    TRIAL :  cpu time      0.2876: real time      0.2903
    CORREC:  cpu time     15.8617: real time     16.0419
    CHARGE:  cpu time      1.3308: real time      1.3327
    --------------------------------------------
      LOOP:  cpu time     31.9752: real time     32.1916

 eigenvalue-minimisations  :     0
 total energy-change (2. order) :-0.2405174E-01  (-0.1546285E-01)
 number of electron       1.9999998 magnetization 
 augmentation part        0.0439864 magnetization 

 Free energy of the ion-electron system (eV)
  ---------------------------------------------------
  alpha Z        PSCENC =         0.00061489
  Ewald energy   TEWEN  =        16.51835301
  -Hartree energ DENC   =       -33.23967525
  -exchange      EXHF   =         0.00000000
  -V(xc)+E(xc)   XCENC  =         5.29446693
  PAW double counting   =        24.05144626      -24.11640447
  entropy T*S    EENTRO =        -0.00000000
  eigenvalues    EBANDS =       -21.44869388
  atomic energy  EATOM  =        25.79065728
  ---------------------------------------------------
  free energy    TOTEN  =        -7.14923524 eV

  energy without entropy =       -7.14923524  energy(sigma->0) =       -7.14923524


--------------------------------------------------------------------------------------------------------




--------------------------------------- Iteration      1(   9)  ---------------------------------------


    POTLOK:  cpu time     13.8649: real time     13.8805
    SETDIJ:  cpu time      0.0072: real time      0.0072
    TRIAL :  cpu time      0.2903: real time      0.2920
    CORREC:  cpu time     15.1804: real time     15.1965
    CHARGE:  cpu time      1.3215: real time      1.3223
    --------------------------------------------
      LOOP:  cpu time     30.6695: real time     30.7192

 eigenvalue-minimisations  :     0
 total energy-change (2. order) :-0.1449625E-01  (-0.2663199E-02)
 number of electron       1.9999998 magnetization 
 augmentation part        0.0441516 magnetization 

 Free energy of the ion-electron system (eV)
  ---------------------------------------------------
  alpha Z        PSCENC =         0.00061489
  Ewald energy   TEWEN  =        16.51835301
  -Hartree energ DENC   =       -32.98413315
  -exchange      EXHF   =         0.00000000
  -V(xc)+E(xc)   XCENC  =         5.26175565
  PAW double counting   =        23.77647386      -23.84028516
  entropy T*S    EENTRO =        -0.00000000
  eigenvalues    EBANDS =       -21.68716786
  atomic energy  EATOM  =        25.79065728
  ---------------------------------------------------
  free energy    TOTEN  =        -7.16373149 eV

  energy without entropy =       -7.16373149  energy(sigma->0) =       -7.16373149


--------------------------------------------------------------------------------------------------------




--------------------------------------- Iteration      1(  10)  ---------------------------------------


    POTLOK:  cpu time     13.8350: real time     13.8509
    SETDIJ:  cpu time      0.0072: real time      0.0072
    TRIAL :  cpu time      0.2874: real time      0.2890
    CORREC:  cpu time     15.6361: real time     15.6528
    CHARGE:  cpu time      1.3215: real time      1.3232
    --------------------------------------------
      LOOP:  cpu time     31.1048: real time     31.1408

 eigenvalue-minimisations  :     0
 total energy-change (2. order) :-0.2643880E-02  (-0.6973128E-03)
 number of electron       1.9999998 magnetization 
 augmentation part        0.0443434 magnetization 

 Free energy of the ion-electron system (eV)
  ---------------------------------------------------
  alpha Z        PSCENC =         0.00061489
  Ewald energy   TEWEN  =        16.51835301
  -Hartree energ DENC   =       -32.95628159
  -exchange      EXHF   =         0.00000000
  -V(xc)+E(xc)   XCENC  =         5.25757554
  PAW double counting   =        23.63699124      -23.70102750
  entropy T*S    EENTRO =        -0.00000000
  eigenvalues    EBANDS =       -21.71325824
  atomic energy  EATOM  =        25.79065728
  ---------------------------------------------------
  free energy    TOTEN  =        -7.16637537 eV

  energy without entropy =       -7.16637537  energy(sigma->0) =       -7.16637537


--------------------------------------------------------------------------------------------------------




--------------------------------------- Iteration      1(  11)  ---------------------------------------


    POTLOK:  cpu time     13.7542: real time     13.7686
    SETDIJ:  cpu time      0.0073: real time      0.0073
    TRIAL :  cpu time      0.2900: real time      0.2908
    CORREC:  cpu time     15.1314: real time     15.1511
    CHARGE:  cpu time      1.3311: real time      1.3319
    --------------------------------------------
      LOOP:  cpu time     30.5163: real time     30.5675

 eigenvalue-minimisations  :     0
 total energy-change (2. order) :-0.6986416E-03  (-0.2161945E-03)
 number of electron       1.9999998 magnetization 
 augmentation part        0.0444103 magnetization 

 Free energy of the ion-electron system (eV)
  ---------------------------------------------------
  alpha Z        PSCENC =         0.00061489
  Ewald energy   TEWEN  =        16.51835301
  -Hartree energ DENC   =       -32.97843354
  -exchange      EXHF   =         0.00000000
  -V(xc)+E(xc)   XCENC  =         5.25926587
  PAW double counting   =        23.57923635      -23.64363011
  entropy T*S    EENTRO =        -0.00000000
  eigenvalues    EBANDS =       -21.69313776
  atomic energy  EATOM  =        25.79065728
  ---------------------------------------------------
  free energy    TOTEN  =        -7.16707401 eV

  energy without entropy =       -7.16707401  energy(sigma->0) =       -7.16707401


--------------------------------------------------------------------------------------------------------




--------------------------------------- Iteration      1(  12)  ---------------------------------------


    POTLOK:  cpu time     13.7080: real time     13.7232
    SETDIJ:  cpu time      0.0074: real time      0.0074
    TRIAL :  cpu time      0.2880: real time      0.2888
    CORREC:  cpu time     15.5357: real time     15.5541
    CHARGE:  cpu time      1.3190: real time      1.3205
    --------------------------------------------
      LOOP:  cpu time     30.8604: real time     30.9111

 eigenvalue-minimisations  :     0
 total energy-change (2. order) :-0.2165849E-03  (-0.1004573E-03)
 number of electron       1.9999998 magnetization 
 augmentation part        0.0444157 magnetization 

 Free energy of the ion-electron system (eV)
  ---------------------------------------------------
  alpha Z        PSCENC =         0.00061489
  Ewald energy   TEWEN  =        16.51835301
  -Hartree energ DENC   =       -32.99353659
  -exchange      EXHF   =         0.00000000
  -V(xc)+E(xc)   XCENC  =         5.26046383
  PAW double counting   =        23.57385000      -23.63839595
  entropy T*S    EENTRO =        -0.00000000
  eigenvalues    EBANDS =       -21.67929707
  atomic energy  EATOM  =        25.79065728
  ---------------------------------------------------
  free energy    TOTEN  =        -7.16729060 eV

  energy without entropy =       -7.16729060  energy(sigma->0) =       -7.16729060


--------------------------------------------------------------------------------------------------------




--------------------------------------- Iteration      1(  13)  ---------------------------------------


    POTLOK:  cpu time     13.7091: real time     13.7255
    SETDIJ:  cpu time      0.0076: real time      0.0076
    TRIAL :  cpu time      0.2908: real time      0.2916
    CORREC:  cpu time     15.1113: real time     15.1273
    CHARGE:  cpu time      1.3260: real time      1.3268
    --------------------------------------------
      LOOP:  cpu time     30.4630: real time     30.4971

 eigenvalue-minimisations  :     0
 total energy-change (2. order) :-0.1010247E-03  (-0.4570948E-04)
 number of electron       1.9999998 magnetization 
 augmentation part        0.0443915 magnetization 

 Free energy of the ion-electron system (eV)
  ---------------------------------------------------
  alpha Z        PSCENC =         0.00061489
  Ewald energy   TEWEN  =        16.51835301
  -Hartree energ DENC   =       -33.01073311
  -exchange      EXHF   =         0.00000000
  -V(xc)+E(xc)   XCENC  =         5.26267456
  PAW double counting   =        23.61289736      -23.67750220
  entropy T*S    EENTRO =        -0.00000000
  eigenvalues    EBANDS =       -21.66435340
  atomic energy  EATOM  =        25.79065728
  ---------------------------------------------------
  free energy    TOTEN  =        -7.16739162 eV

  energy without entropy =       -7.16739162  energy(sigma->0) =       -7.16739162


--------------------------------------------------------------------------------------------------------




--------------------------------------- Iteration      1(  14)  ---------------------------------------


    POTLOK:  cpu time     13.7422: real time     13.7588
    SETDIJ:  cpu time      0.0072: real time      0.0072
    TRIAL :  cpu time      0.2887: real time      0.2894
    CORREC:  cpu time     15.1635: real time     15.1794
    CHARGE:  cpu time      1.3214: real time      1.3222
    --------------------------------------------
      LOOP:  cpu time     30.5255: real time     30.5747

 eigenvalue-minimisations  :     0
 total energy-change (2. order) :-0.4587798E-04  (-0.1382467E-04)
 number of electron       1.9999998 magnetization 
 augmentation part        0.0443778 magnetization 

 Free energy of the ion-electron system (eV)
  ---------------------------------------------------
  alpha Z        PSCENC =         0.00061489
  Ewald energy   TEWEN  =        16.51835301
  -Hartree energ DENC   =       -33.01745933
  -exchange      EXHF   =         0.00000000
  -V(xc)+E(xc)   XCENC  =         5.26383876
  PAW double counting   =        23.64662691      -23.71121446
  entropy T*S    EENTRO =        -0.00000000
  eigenvalues    EBANDS =       -21.65885456
  atomic energy  EATOM  =        25.79065728
  ---------------------------------------------------
  free energy    TOTEN  =        -7.16743750 eV

  energy without entropy =       -7.16743750  energy(sigma->0) =       -7.16743750


--------------------------------------------------------------------------------------------------------




--------------------------------------- Iteration      1(  15)  ---------------------------------------


    POTLOK:  cpu time     13.7191: real time     13.7352
    SETDIJ:  cpu time      0.0071: real time      0.0071
    TRIAL :  cpu time      0.2891: real time      0.2899
    CORREC:  cpu time     15.0812: real time     15.1010
    CHARGE:  cpu time      1.3256: real time      1.3264
    --------------------------------------------
      LOOP:  cpu time     30.4247: real time     30.4780

 eigenvalue-minimisations  :     0
 total energy-change (2. order) :-0.1382538E-04  (-0.3306716E-05)
 number of electron       1.9999998 magnetization 
 augmentation part        0.0443815 magnetization 

 Free energy of the ion-electron system (eV)
  ---------------------------------------------------
  alpha Z        PSCENC =         0.00061489
  Ewald energy   TEWEN  =        16.51835301
  -Hartree energ DENC   =       -33.01665077
  -exchange      EXHF   =         0.00000000
  -V(xc)+E(xc)   XCENC  =         5.26388968
  PAW double counting   =        23.65322259      -23.71778375
  entropy T*S    EENTRO =        -0.00000000
  eigenvalues    EBANDS =       -21.65975425
  atomic energy  EATOM  =        25.79065728
  ---------------------------------------------------
  free energy    TOTEN  =        -7.16745133 eV

  energy without entropy =       -7.16745133  energy(sigma->0) =       -7.16745133


--------------------------------------------------------------------------------------------------------




--------------------------------------- Iteration      1(  16)  ---------------------------------------


    POTLOK:  cpu time     13.7104: real time     13.7252
    SETDIJ:  cpu time      0.0073: real time      0.0073
    TRIAL :  cpu time      0.2867: real time      0.2886
    CORREC:  cpu time     15.4560: real time     15.4735
    EDDIAG:  cpu time      0.1196: real time      0.1828
    CHARGE:  cpu time      1.3286: real time      1.3303
    --------------------------------------------
      LOOP:  cpu time     30.9123: real time     31.0275

 eigenvalue-minimisations  :     0
 total energy-change (2. order) :-0.3304230E-05  (-0.1185634E-05)
 number of electron       1.9999998 magnetization 
 augmentation part        0.0443866 magnetization 

 Free energy of the ion-electron system (eV)
  ---------------------------------------------------
  alpha Z        PSCENC =         0.00061489
  Ewald energy   TEWEN  =        16.51835301
  -Hartree energ DENC   =       -33.01755706
  -exchange      EXHF   =         0.00000000
  -V(xc)+E(xc)   XCENC  =         5.26408027
  PAW double counting   =        23.65138626      -23.71594693
  entropy T*S    EENTRO =        -0.00000000
  eigenvalues    EBANDS =       -21.65904235
  atomic energy  EATOM  =        25.79065728
  ---------------------------------------------------
  free energy    TOTEN  =        -7.16745463 eV

  energy without entropy =       -7.16745463  energy(sigma->0) =       -7.16745463


--------------------------------------------------------------------------------------------------------


  average scaling for gradient   1.7607


 average (electrostatic) potential at core
  the test charge radii are     0.5201
  (the norm of the test charge is              1.0000)
       1 -43.0205       2 -43.0204
 
 
 
 E-fermi : -10.7718     XC(G=0):  -0.0379     alpha+bet : -0.0035

 Fermi energy:       -10.7717742739

 k-point     1 :       0.0000    0.0000    0.0000
  band No.  band energies     occupation 
      1     -10.8295      2.00000
      2      -0.0751      0.00000
      3      -0.0622      0.00000
      4       0.0753      0.00000
      5       0.1877      0.00000
      6       0.2064      0.00000
      7       0.2234      0.00000
      8       0.2481      0.00000
      9       0.2764      0.00000
     10       0.3600      0.00000
     11       0.3678      0.00000
     12       0.3916      0.00000
     13       0.4265      0.00000
     14       0.4388      0.00000
     15       0.4418      0.00000
     16       0.4596      0.00000
     17       0.4858      0.00000
     18       0.5160      0.00000
     19       0.5244      0.00000
     20       0.5307      0.00000
     21       0.5613      0.00000
     22       0.6373      0.00000
     23       0.6537      0.00000
     24       0.6659      0.00000
     25       0.6805      0.00000
     26       0.6896      0.00000
     27       0.7257      0.00000
     28       0.7261      0.00000
     29       0.7264      0.00000
     30       0.7310      0.00000
     31       0.7573      0.00000
     32       0.8649      0.00000


--------------------------------------------------------------------------------------------------------


 soft charge-density along one line, spin component           1
         0         1         2         3         4         5         6         7         8         9
 total charge-density along one line
 
 pseudopotential strength for first ion, spin component:           1
 -2.363  -4.075   0.000  -0.002  -0.000
 -4.075  -6.944   0.000  -0.006  -0.000
  0.000   0.000  -0.346  -0.000  -0.000
 -0.002  -0.006  -0.000  -0.340   0.000
 -0.000  -0.000  -0.000   0.000  -0.346
 total augmentation occupancy for first ion, spin component:           1
  2.779  -0.338   0.000   0.388   0.000
 -0.338   0.041   0.000  -0.047   0.000
  0.000   0.000   0.000   0.000   0.000
  0.388  -0.047   0.000   0.054   0.000
  0.000   0.000   0.000   0.000   0.000


------------------------ aborting loop because EDIFF is reached ----------------------------------------


    FORLOC:  cpu time      0.0219: real time      0.0219
    FORNL :  cpu time      0.1613: real time      0.1615
    STRESS:  cpu time      0.4734: real time      0.4738
    OFIELD:  cpu time      0.0008: real time      0.0008

  FORCE on cell =-STRESS in cart. coord.  units (eV):
  Direction    XX          YY          ZZ          XY          YZ          ZX
  --------------------------------------------------------------------------------------
  Alpha Z     0.00061     0.00061     0.00061
  Ewald      -0.83794    -0.64466    18.00094    -0.00000     0.00000    -0.00000
  Hartree    10.46371    10.65606    11.89789    -0.00000    -0.00000    -0.00000
  E(xc)      -6.60538    -6.60526    -6.08442     0.00000     0.00000    -0.00000
  Local     -19.48761   -19.87320   -31.60012     0.00000     0.00000     0.00000
  n-local    -5.57634    -5.57674    -6.64524    -0.00000     0.00000    -0.00000
  augment     0.31308     0.31289     0.23429     0.00000     0.00000    -0.00000
  Kinetic    21.68705    21.68700    14.25154    -0.00000     0.00000    -0.00000
  Fock        0.00000     0.00000     0.00000     0.00000     0.00000     0.00000
  -------------------------------------------------------------------------------------
  Total      -0.04282    -0.04329     0.05549     0.00000     0.00000     0.00000
  in kB      -0.00433    -0.00438     0.00561     0.00000     0.00000     0.00000
  external pressure =       -0.00 kB  Pullay stress =        0.00 kB


 VOLUME and BASIS-vectors are now :
 -----------------------------------------------------------------------------
  energy-cutoff  :      500.00
  volume of cell :    15847.84
      direct lattice vectors                 reciprocal lattice vectors
    23.670780182  0.000000000  0.000000000     0.042246178  0.000000000  0.000000000
     0.000000000 22.317026138  0.000000000     0.000000000  0.044808838  0.000000000
     0.000000000  0.000000000 30.000000000     0.000000000  0.000000000  0.033333333

  length of vectors
    23.670780182 22.317026138 30.000000000     0.042246178  0.044808838  0.033333333


 FORCES acting on ions:
    Electron-Ion                     Ewald-Force                    Non-Local-Force
 -----------------------------------------------------------------------------------------------
   -.787E-03 0.104E-02 0.213E+02   -.475E-18 0.396E-18 -.269E+02   0.614E-22 -.234E-21 0.550E+01
   -.787E-03 0.104E-02 -.213E+02   0.867E-19 0.306E-18 0.269E+02   -.390E-21 -.341E-23 -.550E+01
 -----------------------------------------------------------------------------------------------
   -.157E-02 0.207E-02 -.120E-03   -.388E-18 0.702E-18 0.000E+00   -.328E-21 -.237E-21 0.000E+00
 
 
 POSITION                                       TOTAL-FORCE (eV/Angst)
 -----------------------------------------------------------------------------------
     11.83540     11.15850     14.98878         0.000000     -0.000000     -0.155037
     11.83540     11.15850     15.72022        -0.000000      0.000000      0.155037
 -----------------------------------------------------------------------------------
    total drift:                               -0.001573      0.002075     -0.000120


--------------------------------------------------------------------------------------------------------



  FREE ENERGIE OF THE ION-ELECTRON SYSTEM (eV)
  ---------------------------------------------------
  free  energy   TOTEN  =        -7.16745463 eV

  energy  without entropy=       -7.16745463  energy(sigma->0) =       -7.16745463
 


--------------------------------------------------------------------------------------------------------


 BEEFens 2000 ensemble energies
             -0.163838306395670E+01
              0.104973493858437E+00
             -0.247569766566685E+00
              0.105283477230206E+01
             -0.594697858344638E+00
             -0.283941574507021E+00
             -0.120316475744383E+01
             -0.245659721489477E+01
             -0.681341903388178E+00
             -0.898166885399036E+00
             -0.728318156023483E+00
              0.492614160271478E-01
             -0.330757947102129E-01
             -0.467071118580522E-01
              0.437057220953365E-01
              0.115086142338970E+01
             -0.514287268130637E+00
             -0.102242741461589E+00
              0.774756747240344E+00
             -0.267473267162052E+01
              0.123981571560927E+01
             -0.480704998359091E+00
             -0.190201768892975E+00
             -0.229573045158083E+00
              0.158863538322157E+00
             -0.956266061499962E-01
              0.229991494287169E+01
             -0.433264977050665E+00
             -0.577870335127955E-01
             -0.132660235098650E+01
              0.172643742454816E+01
              0.109376723943098E-01
             -0.108417300374233E+01
              0.272532804421383E+00
             -0.761541189073776E-01
              0.819161991300666E+00
             -0.479782343966662E-02
             -0.906761517862438E-01
              0.109271666584434E+01
             -0.243380403389657E+01
              0.141160572331822E+01
              0.165402254130239E+00
             -0.363058329136178E+00
             -0.513296896258856E+00
              0.376867230929529E+00
             -0.333583047634805E+00
              0.135217064904183E+01
              0.895406491801314E+00
             -0.490185423142435E+00
             -0.833169488897331E+00
             -0.807754593615041E+00
             -0.101124928380833E+01
              0.823469430755786E+00
             -0.123313461878775E+01
              0.344589102929829E+00
              0.141223204580447E+01
              0.180575692073640E+01
              0.811074481887055E+00
              0.412406506252017E+00
              0.790174485059863E+00
              0.240875012275743E+01
              0.461408589729688E+00
             -0.136568693196098E+01
             -0.281041770168715E+00
             -0.874758207414729E+00
              0.148953146461848E+01
             -0.177657551652110E+01
             -0.155362606575959E+01
             -0.971809646068961E+00
             -0.518413126129913E+00
             -0.820422803251426E+00
              0.769973538109229E+00
              0.562789063562239E+00
              0.367908644148217E+00
             -0.108454160984272E+01
             -0.817209508306337E+00
             -0.138402800273065E+01
              0.802020459757603E+00
             -0.838236928564139E+00
              0.972231778598165E+00
             -0.288779693393321E+00
             -0.787780262816356E+00
             -0.111615527904162E+01
             -0.333635307990949E+00
             -0.512193876724579E+00
             -0.280550464556788E+00
              0.102738016425503E+01
              0.195784604861803E+01
             -0.104234265970034E+01
             -0.180999121624034E+01
             -0.445803069344756E+00
              0.268544297258375E+01
             -0.143290828483802E+01
              0.780211119581321E+00
             -0.818162108439910E-01
             -0.149512826015037E+01
              0.768759101824997E+00
              0.646583613616317E+00
             -0.295926276400893E+00
              0.691467598186135E+00
             -0.747778577306926E+00
             -0.147267830890949E+01
              0.264508288242614E+01
              0.101068018612006E+01
              0.408095573989574E+00
              0.115344173366357E+00
              0.315067242325758E+00
              0.198916356695583E+01
             -0.781170779463053E+00
              0.134826845351141E-01
             -0.347507521678121E+01
              0.520948864482686E+00
             -0.165356265308447E+01
              0.263080823632312E+00
              0.480552996963246E+00
             -0.805838213586924E+00
             -0.126787449352534E+01
              0.992191797804818E-01
             -0.856744897544337E+00
              0.113037834093413E+01
             -0.936061169466382E+00
             -0.359176214456584E+00
             -0.102061674918442E+01
              0.102686232575985E+00
              0.139982657940606E+00
              0.535880210384885E+00
              0.919097585427764E-01
             -0.219104606673899E+00
              0.168735009665626E+01
              0.226826910298902E+01
              0.125935605939621E+01
              0.146326162573135E+01
             -0.424725216982716E+00
              0.772059411827808E-02
              0.112837580000585E+01
              0.262758084865932E+00
             -0.187608580556833E+01
             -0.122664335443924E+01
             -0.126547098567291E+01
             -0.784381845188677E+00
              0.644724792258336E+00
             -0.301529375461154E+01
             -0.239263634889368E+00
              0.105831030039627E+01
             -0.117209265996116E+01
             -0.843839684771275E+00
              0.131472109300774E+01
              0.140321501590544E+01
             -0.681121281775429E+00
              0.997840612159192E+00
             -0.670768394633380E+00
              0.101273058339722E+01
              0.224757224443755E+00
              0.226755447228093E+00
             -0.201930857317187E+01
             -0.118318261485624E+01
             -0.267556394773099E+00
             -0.354183541764365E+00
             -0.959208995777580E+00
              0.291878973767517E+01
             -0.601822320140002E-01
             -0.648832369085486E+00
              0.935227359449733E+00
             -0.995527358926445E+00
             -0.971584560932851E+00
              0.795476231449136E+00
              0.241098482314411E+00
              0.116178770383893E+00
              0.390657637855172E+00
             -0.270522374420720E+00
              0.149706328716963E+00
              0.142426202995246E+01
             -0.605764880221642E+00
              0.566519643444844E+00
              0.219629196232275E+01
              0.751484645410519E+00
              0.105000778149611E+00
             -0.447103100896460E+00
              0.367482556272959E+01
             -0.742410339045790E+00
              0.112895844794200E+01
              0.851568681573248E+00
              0.629646526176681E+00
              0.238614863492370E+01
              0.103454280433924E+01
             -0.190724030630561E-01
              0.523367463150247E+00
              0.138436342660384E+01
              0.772488850273035E+00
             -0.150537382025106E+01
              0.245693241388953E+01
             -0.231006444929984E+01
             -0.200299690300465E+00
              0.133079841709597E+01
              0.438972239767271E+00
              0.375256721674457E-01
              0.603269953843784E+00
              0.346868227066792E+00
              0.621178190065366E+00
             -0.147507770538086E+01
              0.116607685768296E+00
             -0.521835823512133E+00
              0.597086442863661E-01
             -0.470324340332287E-01
             -0.425190671424212E+00
             -0.173428006387502E+00
              0.213267531768021E+01
             -0.133564782386904E-01
             -0.766229242955543E+00
             -0.586971301837769E-01
              0.365445832579068E+00
             -0.158877423186861E+01
             -0.145441895294736E+01
             -0.738043102855404E+00
             -0.154200371153537E+01
             -0.421098527570447E+00
             -0.949395011745610E+00
              0.336664155222562E+00
             -0.383971930377802E-02
             -0.312166981309373E+00
             -0.169880146850321E+00
              0.168712055416478E+00
             -0.479973012080078E+00
              0.159360984306009E+01
             -0.219383246539699E+01
             -0.176284989399784E+00
             -0.347518713567664E+00
              0.466523965920204E+00
              0.543112373776499E+00
             -0.134710311590629E+01
             -0.194729070333918E+00
              0.115886620190504E+01
             -0.585760553665290E+00
              0.251629639689426E+00
              0.899254224927716E+00
              0.670176613081157E-01
              0.284274471403254E+01
             -0.129968885729022E+00
             -0.104266821629145E+01
             -0.224007498233265E+00
             -0.900966153525250E+00
              0.107596367293207E+01
             -0.147835984103989E+01
              0.573507571734277E+00
              0.810870815167875E+00
             -0.314493797010575E+00
              0.289070030470553E+01
              0.297571901824391E+01
             -0.204687080304618E+01
              0.142706660308495E+01
              0.631261648471312E+00
             -0.136589790591421E+01
              0.548910877354776E+00
              0.114221178538458E+01
              0.118085184834033E+01
              0.183786011257888E+00
              0.773855189066460E+00
              0.187449287870482E+01
             -0.589306474670223E+00
              0.141173760830844E+00
              0.137650156682852E+01
             -0.804282535675668E+00
             -0.697992906320779E+00
              0.161889255545621E+01
              0.850264700747444E+00
              0.187695309314178E+01
              0.103643624895744E+01
              0.430697210365000E+00
              0.432581512431751E+00
              0.119300925630645E+01
             -0.131280548122082E+01
              0.135941941170953E+00
              0.805588706746242E+00
              0.434405993739624E-01
              0.683260937456138E+00
             -0.169507525333573E+01
              0.856167151150029E+00
             -0.103593626908805E+01
             -0.784001915001844E+00
              0.512997873646263E+00
             -0.231302417003829E+00
              0.154727146275586E+01
             -0.343684888108419E+00
              0.596398295051095E+00
              0.693659848659676E+00
              0.188988343975489E+01
              0.131270651055747E+01
              0.141552831303661E+01
             -0.873214342727975E-01
             -0.317334870034509E+00
             -0.748308390918741E+00
              0.213122716626878E+01
              0.210386447695118E+01
              0.851825565043340E+00
             -0.750370262578062E+00
              0.121029092223549E+01
              0.720633507602653E-01
              0.457201919221852E+00
              0.184972739157434E+01
             -0.182169630762514E+00
             -0.317542300899103E+00
             -0.695205295918322E+00
             -0.165694601510816E+01
              0.242047908441374E+01
              0.125948681401881E+01
             -0.169500349702956E+01
             -0.541843137852982E+00
              0.474935346063736E+00
             -0.355351292868030E+00
              0.155915471843873E+01
              0.462195444898737E+00
              0.198147516084855E+01
              0.625423268943725E+00
             -0.450217910608492E+00
              0.273381899586522E+00
             -0.199341755979513E+00
             -0.486624001678408E+00
              0.478879689524321E+00
              0.503319128797378E+00
              0.223703270244291E+01
              0.177022075163359E+01
              0.154754749738304E+01
              0.185249441435702E+01
              0.305661458976867E+00
             -0.785065672618574E+00
              0.288489654244235E+00
             -0.794071213783177E+00
             -0.142716232123600E+01
             -0.127488269878315E+01
             -0.816268134718738E+00
             -0.281490286124512E+01
             -0.101509030025515E+01
             -0.207446520372539E+01
              0.395462513893135E+00
             -0.113945709904553E+01
              0.141778140128285E+01
             -0.236797341255591E+01
             -0.734802844897436E+00
              0.859050839955203E+00
              0.500034260044012E+00
             -0.220556048225221E+01
              0.119894947936726E+01
             -0.737024881025779E+00
              0.139661996522756E+01
             -0.700735200743838E+00
             -0.171965749492816E+01
              0.495751218748238E+00
             -0.142969940827478E+01
              0.433719153471568E-03
             -0.899439015142054E-01
              0.983823870313308E+00
              0.311893629110289E+01
             -0.107524456252168E+01
             -0.909398895926667E+00
             -0.405945652484331E+00
             -0.952293184244004E-01
             -0.188284227273558E+01
             -0.151510431186689E+01
              0.136522311476073E+01
             -0.303142384431900E+00
              0.556488324413468E+00
             -0.117683145110412E+01
             -0.277428251074890E+00
             -0.110297149962655E+01
              0.107998580701245E+01
              0.356880616196213E+00
             -0.722515416532041E+00
             -0.418229960873329E+00
              0.406764795346823E+00
             -0.152783262386285E+00
              0.731034779222272E+00
             -0.746427637102805E+00
              0.315420577432430E+00
              0.871006661884551E+00
              0.260172207625454E+00
             -0.684510042753461E+00
              0.390820507139606E+01
              0.155668675148492E+01
              0.263820566187875E+00
              0.899266501791818E-01
             -0.147529575595496E+01
              0.831702706584293E+00
             -0.182858694878769E+01
             -0.937672628984476E+00
             -0.167895843219630E+01
             -0.469251627633678E+00
              0.157459206426089E+01
             -0.150517472345942E+01
              0.665513526476749E+00
             -0.212011087636514E+00
             -0.254177994151252E-01
             -0.709594463525867E+00
             -0.997848337081042E+00
             -0.436238774920115E+00
             -0.737902203905393E+00
             -0.460388863604444E+00
             -0.831210312393124E+00
              0.957314160380973E-02
             -0.667163273418615E+00
             -0.108562443427310E+01
              0.582657707702769E+00
             -0.156672764819501E+00
              0.628527630231281E+00
              0.276708546347804E+00
             -0.183998460933006E+01
             -0.121727642828653E+01
             -0.139875566374984E+01
              0.651021025343713E+00
             -0.226171881042779E+00
             -0.142961303025474E+01
              0.142692259328717E+01
             -0.113370837530327E+01
              0.138002176573238E+01
             -0.743432408343336E+00
             -0.122017141284904E+01
              0.589854640073851E+00
             -0.179318380579625E+01
             -0.725923013077352E+00
              0.160114897107158E+01
              0.702433871010769E+00
             -0.100497343419065E+01
              0.156440481854124E+01
             -0.327887214822411E+00
             -0.831169215264490E+00
             -0.723001304145910E+00
             -0.144626425021814E+01
              0.688333825028701E+00
             -0.227497490549088E+01
             -0.188926503867921E+01
             -0.306314170375828E-01
             -0.716637240631383E+00
             -0.165782665248317E+01
              0.190626770894833E+01
              0.350968955137231E+01
             -0.383515502302595E+00
             -0.535621516526339E-01
             -0.160691917597444E+01
              0.165779344304167E+01
              0.519974148862779E+00
             -0.406533326507200E+00
             -0.954527806908240E+00
              0.196938039992959E+00
             -0.142102605233939E+01
             -0.819527812951710E-01
             -0.206012011919254E+01
              0.591249981609202E+00
              0.434613799419070E+00
             -0.777463284069331E-01
             -0.407472595908122E+00
             -0.101498507201017E+01
             -0.502364384720499E+00
              0.360244841262657E+01
             -0.319289283485933E+00
             -0.125104493878380E+01
             -0.170437856526855E+01
              0.387629847054441E+00
             -0.955915810134033E+00
              0.140892495275860E+00
              0.822538515650374E+00
              0.182338393942763E+00
              0.107536516467590E+01
              0.606159687183409E+00
              0.154551021021976E+01
              0.563313934162198E+00
             -0.909755710564970E+00
              0.133665382908509E+01
              0.911542750870710E+00
              0.328755770401094E+00
              0.945446988701065E+00
             -0.759308724766699E+00
              0.173702484048209E+01
              0.666813564710466E+00
             -0.872775164780759E+00
             -0.286536364165332E+00
             -0.362496039298613E+00
              0.307746584407441E+00
             -0.585326219226488E+00
             -0.385890035109300E+00
             -0.253779716360555E+00
              0.192853220000534E+01
              0.153427284433582E+01
             -0.157479244424884E+01
             -0.230858008425457E+00
             -0.126450544680610E+01
             -0.268306073276949E+00
             -0.618869846533165E+00
              0.235418930683844E+00
             -0.715939864349208E-01
             -0.749383091616075E+00
              0.366029496285289E+00
             -0.246288712244872E+00
             -0.217243936325364E+00
              0.210098754573112E+01
              0.331183713246577E+00
             -0.213841637121823E+01
             -0.112176191226776E+01
              0.236185026686268E+01
              0.432081504905733E+00
             -0.232843182537160E+00
              0.274264308747804E+01
             -0.375612389199853E+00
             -0.173035865253451E+00
             -0.532682284969695E+00
              0.409426393115028E+00
              0.877897723098663E+00
              0.133150996293603E+00
              0.751723896751597E+00
             -0.260201214342384E+00
             -0.109282929086030E+01
             -0.910094117275360E+00
             -0.119569696705679E+01
              0.117776810539600E+01
              0.440492286093852E+00
              0.959574961518409E+00
              0.531464044589032E+00
              0.226700440905582E+01
              0.405546292537664E+00
             -0.184297167742539E+01
             -0.857834858916245E+00
             -0.130507542967910E-01
             -0.714970744382708E+00
              0.157813918502629E+01
             -0.227129855350718E+00
              0.271104942180919E+00
              0.135096921070836E+01
             -0.206362796224751E+01
              0.364725083466915E+01
              0.559338040312170E+00
              0.641362196524996E+00
              0.100231672006718E+01
             -0.372753898543596E-01
             -0.148591826001668E+00
              0.737939927619769E+00
             -0.906290813436367E+00
              0.217683722430701E+01
              0.194999761827097E+01
             -0.845061686444562E+00
              0.541316379934138E+00
              0.171093533318982E+01
             -0.518678388228478E+00
              0.628860478878678E+00
              0.716622060273148E+00
              0.108540317267231E+01
             -0.171873748811567E+01
             -0.509253658968039E-01
             -0.450092577226795E+00
             -0.238137391554073E+00
             -0.340561551354591E+00
              0.277926431565559E+00
             -0.446027004734978E+00
             -0.659917390349589E+00
              0.517899205001073E+00
              0.146764152505933E+00
              0.133888577971381E+01
             -0.117139450287550E+01
              0.109184550721372E+01
              0.150445860912204E+01
             -0.586435495657716E-01
              0.152465907240067E+01
             -0.162019182215308E+01
             -0.252249315360313E+01
             -0.111381276800849E+00
             -0.345752420268841E-01
              0.224042890203604E+00
              0.188281876967228E+01
              0.155739485923181E-01
              0.104202099587654E+01
              0.157294190267049E+01
              0.107969060511047E+01
              0.815773764646011E-02
              0.152828052797288E+01
             -0.468772372704022E+00
             -0.938605034640458E+00
             -0.969971459224746E+00
              0.145746229270912E+00
              0.903429703913391E+00
             -0.146171960658155E+00
              0.860932202004447E+00
              0.827663417432993E-01
              0.121665206081134E+01
              0.300907372205760E+00
              0.169274171754764E+00
             -0.139741705723083E+00
              0.641103132753806E+00
              0.100455074513019E+01
              0.354976057206275E+00
             -0.764158416762837E-01
             -0.130023523299880E+01
              0.636740109312048E+00
              0.498105762351398E+00
              0.825154234991467E+00
              0.693630764561123E+00
              0.859014395507962E+00
             -0.143005861024053E+00
              0.867905635000485E+00
             -0.100230296320553E+01
             -0.915261143332007E-01
             -0.136323251828566E+01
             -0.858005467426270E+00
              0.112327722269410E+01
             -0.225477112681893E+01
              0.569193828693823E+00
              0.411078046908955E+00
              0.236121683854852E+01
             -0.265610100066324E+00
              0.900663913768918E+00
             -0.432599762705546E+00
             -0.118809018348744E+01
             -0.167485174430211E+01
             -0.472956819885195E+00
             -0.242637452950392E+01
              0.279010437537275E+00
             -0.575168000753911E+00
              0.826865611432673E+00
              0.811380887238141E+00
             -0.679600895105908E+00
             -0.825882122085364E+00
              0.116243388318499E+01
             -0.131915925618950E+01
             -0.401350181534861E+00
             -0.281910399544530E+00
              0.582603002956918E+00
              0.716671341970629E-01
              0.941919329227567E-01
             -0.280541477719521E+00
              0.129497001224776E+01
             -0.171327030910031E+01
              0.193562990677039E+00
              0.148764996520486E+01
             -0.739971856677863E+00
              0.855838463680798E-01
             -0.115046238307372E+00
             -0.167380328629285E+01
             -0.987089102055900E+00
              0.215115614574888E-01
              0.875147865740841E+00
              0.881456516278748E+00
              0.256573639276403E+00
             -0.240559681191607E+00
              0.323082803355123E+00
             -0.101359554330649E+01
             -0.122367941187159E+00
             -0.144347115408853E+01
             -0.708968373401075E+00
              0.120545365820593E+01
             -0.803009380785698E+00
              0.176260738039664E+01
             -0.662494861446729E+00
              0.746956108930388E+00
              0.719403032542735E+00
             -0.143601228540498E+01
             -0.622243654846968E+00
              0.215930319008911E+00
             -0.101118629529805E+01
             -0.117028955898161E+01
             -0.224498807359710E+01
             -0.146171768342159E+01
             -0.111503969685303E+01
             -0.102974916734850E+01
             -0.419698158912709E-01
              0.720193877889103E+00
              0.457587467432700E+00
              0.692606938180715E+00
             -0.155349175218464E+01
              0.232705556718111E+00
              0.932422421731139E+00
             -0.175520661151814E+01
             -0.135932098500843E+01
             -0.102259495224187E+01
             -0.863791517533015E+00
              0.270800470303461E+00
              0.331205091728464E-01
             -0.817112223368998E+00
              0.674946192195760E+00
             -0.523093587428841E+00
              0.145659426205935E+01
             -0.208536261507708E+01
              0.153830801370400E+01
             -0.300332271491796E+00
             -0.137308496154791E+01
             -0.604476855274982E+00
             -0.231026878083763E+00
              0.105931436932336E+01
             -0.165733719660499E+01
             -0.258768710239926E+00
             -0.381970078400158E+00
              0.104232300939465E+01
              0.194581593505456E+01
             -0.265066436825468E+01
              0.226914592951909E+01
              0.807538592148768E+00
             -0.190872002536958E+01
             -0.778980432915878E+00
              0.199411286239336E+01
              0.151298758002524E+01
             -0.628528673597593E+00
             -0.185320305725262E+00
              0.500314891733882E+00
              0.193680822148591E+01
             -0.147901229137624E+01
              0.363652805081602E+00
             -0.820879407428644E-01
              0.723940671231695E+00
             -0.172123112315900E+01
             -0.142146059133526E-01
             -0.656796762676995E+00
              0.113974595254357E+01
              0.830319208840041E+00
             -0.236854544082774E+01
             -0.115530429696663E+01
             -0.568852250719244E+00
             -0.101458015410871E+01
             -0.283160719191516E+00
             -0.381562974319104E+00
              0.130900205412268E+01
              0.102378710681236E+01
             -0.700506004612218E-01
             -0.947041541321506E+00
             -0.232745843212917E+01
              0.137889103354060E+01
             -0.112807266303157E+01
             -0.847220474844997E+00
              0.270588869556303E+00
[...]
  325                m_alltoallv_z                         3.667180                  574   7
  326                map_scatter                           2.562014                  574   7
  327              map_backward                          8.862462                   1128   6
  328                map_gather                            2.149511                  564   7
  329                m_alltoallv_z                         4.977439                  564   7
  330                map_scatter                           1.724563                  564   7
  331        ggaall_grid                           6.798471                          101   3
  332        m_sumb_d                              0.131799                          510   3
  333        pothar                                0.026830                            5   3
  334          m_sumb_d                              0.007693                          5   4
  335        m_bcast_d                             0.051144                            5   3
  336      potlok_metagga                        0.000005                              5   2
  337      set_dd_magatom                        0.000003                              3   2
  338      set_dd_paw                            0.033067                              5   2
  339        set_rsgf_all                          0.000009                            5   3
  340        m_sumb_d                              0.032457                           35   3
  341      fft3d_mpi                             0.038695                              2   2
  342        fftbrc_mpi                            0.036323                            2   3
  343          fftbas_plan_mpi                       0.036317                          2   4
  344            dfftw_execute                         0.014966                        6   5
  345            map_forward                           0.019843                        4   5
  346              map_gather                            0.003622                      2   6
  347              m_alltoallv_z                         0.007192                      2   6
  348              map_scatter                           0.008988                      2   6
  349      wavpre_noio                           0.065370                              2   2
  350        stufak                                0.019625                            2   3
  351      eddiag                                0.254294                              2   2
  352        overl                                 0.000021                            2   3
  353        redis_proj                            0.002925                            6   3
  354          m_alltoall_d                          0.002836                          6   4
  355        fftwav_mpi                            0.097602                            2   3
  356          fft3d_mpi                             0.082584                          2   4
  357            fftbrc_mpi                            0.069104                        2   5
  358              fftbas_plan_mpi                       0.069100                      2   6
  359                dfftw_execute                         0.043237                    6   7
  360                map_forward                           0.024321                    4   7
  361                  map_gather                            0.004268                  2   8
  362                  m_alltoallv_z                         0.003101                  2   8
  363                  map_scatter                           0.007430                  2   8
  364        hamilt_local                          0.091447                            2   3
  365          vhamil                                0.019894                          2   4
  366          kinhamil                              0.071532                          2   4
  367            fftext_mpi                            0.070167                        2   5
  368              fft3d_mpi                             0.067937                      2   6
  369                fftbrc_mpi                            0.054106                    2   7
  370                  fftbas_plan_mpi                       0.054102                  2   8
  371                    dfftw_execute                         0.039032                6   9
  372                    map_backward                          0.013916                4   9
  373                      map_gather                            0.006967              2  10
  374                      m_alltoallv_z                         0.002761              2  10
  375                      map_scatter                           0.004099              2  10
  376        redis_pw                              0.045395                            6   3
  377          m_alltoall_d                          0.042250                          6   4
  378        orth1                                 0.002228                            2   3
  379        m_sumb_d                              0.000547                            2   3
  380        shift_bands_between_low_high          0.000002                            2   3
  381        lincom                                0.002878                            2   3
  382      set_charge                            2.686515                              2   2
  383        soft_charge                           0.255372                            2   3
  384          fftwav_mpi                            0.088090                          2   4
  385            fft3d_mpi                             0.076316                        2   5
  386              fftbrc_mpi                            0.064213                      2   6
  387                fftbas_plan_mpi                       0.064208                    2   7
  388                  dfftw_execute                         0.040623                  6   8
  389                  map_forward                           0.022317                  4   8
  390                    map_gather                            0.003751                2   9
  391                    m_alltoallv_z                         0.002906                2   9
  392                    map_scatter                           0.007045                2   9
  393          pw_charge                             0.010713                          2   4
  394          m_sumb_d                              0.081163                          2   4
  395          fft_gq                                0.057607                          2   4
  396            fft3d_mpi                             0.053424                        2   5
  397              fftbrc_mpi                            0.045219                      2   6
  398                fftbas_plan_mpi                       0.045213                    2   7
  399                  dfftw_execute                         0.020806                  6   8
  400                  map_backward                          0.023292                  4   8
  401                    map_gather                            0.011202                4   9
  402                    m_alltoallv_z                         0.010954                4   9
  403                    map_scatter                           0.000924                4   9
  404        m_sumb_d                              0.161421                            2   3
  405        depsum                                0.037022                            2   3
  406          m_sumb_d                              0.036971                          2   4
  407        augmentation_charge                   0.052548                            2   3
  408          m_sumb_d                              0.002453                          2   4
  409          fft3d_mpi                             0.043761                          2   4
  410            fftbrc_mpi                            0.041357                        2   5
  411              fftbas_plan_mpi                       0.041353                      2   6
  412                dfftw_execute                         0.014955                    6   7
  413                map_backward                          0.025102                    4   7
  414                  map_gather                            0.007639                  2   8
  415                  m_alltoallv_z                         0.011268                  2   8
  416                  map_scatter                           0.006153                  2   8
 
 Flat profile
 ============
 
             routine name                   CPU           calls
 ---------------------------------------------------------------
 potlok                                600.713976          50
 total_time                            345.683514           1
 set_charge                             51.310775          47
 dfftw_execute                          40.234536       14316
 m_alltoallv_z                          33.734848        4869
 map_scatter                            17.887892        4869
 ggaall_grid                            17.674308         146
 map_gather                             14.361398        4869
 m_sumb_d                                8.944054        3424
 fft3d_mpi                               7.555321        4772
 fftbas_plan_mpi                         3.266678        4772
 m_alltoall_d                            1.460296         931
 fftwav_mpi                              1.278794         190
 map_forward                             0.932445        4852
 edwav                                   0.867277          44
 eccp                                    0.643901          93
 elmin_all                               0.632906           3
 m_bcast_d                               0.541930         120
 vhamil                                  0.466856          46
 soft_charge                             0.429532          47
 lapack                                  0.310574          19
 pw_charge                               0.262116          47
 m_bcast_z                               0.219767          33
 lincom                                  0.215107         140
 orth1                                   0.208090         126
 pothar                                  0.195291          50
 augmentation_charge                     0.159321          47
 redis_pw                                0.157947         281
 w1_dscal                                0.120645          22
 eddav                                   0.106888           5
 fft_gq                                  0.101601          47
 choleski                                0.086624          47
 fftext_mpi                              0.084849          68
 eddiag                                  0.079541          27
 forloc                                  0.063566           3
 strelo                                  0.057977           3
 wavpre_noio                             0.045745           2
 inisym                                  0.045558           1
 map_backward                            0.044972        4692
 w1_copy                                 0.034490          57
 ggemm                                   0.032969          19
 stufak                                  0.032633           3
 kinhamil                                0.031138          46
 rspher_all                              0.028359          40
 force_and_stress                        0.014468           3
 fftbrc_mpi                              0.013898        4772
 setdij_                                 0.011409         129
 redis_proj                              0.009047         650
 brgrid                                  0.007746           1
 apply_precond                           0.006684          14
 setup_precond                           0.006278           5
 set_dd_paw                              0.005635          53
 fewald                                  0.005115           3
 rpro_isp                                0.004219          39
 densta                                  0.003747          58
 racc0                                   0.003483          41
 rpromu                                  0.003469          39
 overl                                   0.003325         151
 rpro1                                   0.003278          36
 orthch                                  0.002963          47
 strkin                                  0.002494           3
 rsp                                     0.001563           3
 rpromu_gemm                             0.001514          78
 depsum                                  0.001249          47
 strnlr                                  0.000877           3
 newband                                 0.000814          24
 redis_pw_all                            0.000468          44
 hamiltmu                                0.000354          19
 fornlr                                  0.000317           3
 overl1                                  0.000287          19
 hamilt_local                            0.000270          27
 crpa_reader                             0.000252           1
 raccmu_                                 0.000210          19
 redis_pw_over_bands                     0.000175          49
 rcp                                     0.000153           3
 set_rsgf_all                            0.000148          53
 fordep                                  0.000123           3
 w1_projall                              0.000069          14
 potlok_metagga                          0.000058          50
 set_dd_magatom                          0.000046           6
 proall                                  0.000041           3
 phaser                                  0.000039          66
 rotate_active_occupied_orbital          0.000029           3
 truncate_high_frequency_w1              0.000025          24
 posmap                                  0.000023           2
 vectorpot                               0.000009           1
 shift_bands_between_low_high            0.000006           5
 ---------------------------------------------------------------
  summed up times    1151.46337795258     
 
 Accumulative profile
 ====================
 
             routine name                   CPU           calls
 ---------------------------------------------------------------
 total_time                           1151.463378           1
 potlok                                725.268386          50
 elmin_all                             700.028832           3
 fft3d_mpi                             118.031987        4772
 fftbrc_mpi                            110.476666        4772
 fftbas_plan_mpi                       110.462768        4772
 set_charge                             62.573453          47
 dfftw_execute                          40.234536       14316
 map_forward                            33.912460        4852
 m_alltoallv_z                          33.734848        4869
 map_backward                           33.049094        4692
 map_scatter                            17.887892        4869
 ggaall_grid                            17.674308         146
 map_gather                             14.361398        4869
 fftwav_mpi                              9.018481         190
 m_sumb_d                                8.944054        3424
 edwav                                   6.860510          44
 soft_charge                             5.885031          47
 eddav                                   3.498130           5
 fftext_mpi                              2.406753          68
 force_and_stress                        1.985544           3
 eddiag                                  1.969181          27
 rpro_isp                                1.906527          39
 kinhamil                                1.660111          46
 m_alltoall_d                            1.460296         931
 strnlr                                  1.340377           3
 augmentation_charge                     1.285548          47
 fft_gq                                  1.281558          47
 hamilt_local                            1.255787          27
 redis_pw                                1.172431         281
 hamiltmu                                0.877394          19
 eccp                                    0.651286          93
 m_bcast_d                               0.541930         120
 fornlr                                  0.471017           3
 vhamil                                  0.466856          46
 redis_proj                              0.454860         650
 set_dd_paw                              0.350112          53
 orthch                                  0.339722          47
 pothar                                  0.330547          50
 newband                                 0.330366          24
 lapack                                  0.310574          19
 depsum                                  0.300065          47
 pw_charge                               0.262116          47
 m_bcast_z                               0.219767          33
 lincom                                  0.215107         140
 orth1                                   0.208090         126
 proall                                  0.182134           3
 redis_pw_over_bands                     0.180672          49
 redis_pw_all                            0.180497          44
 w1_dscal                                0.120645          22
 choleski                                0.086624          47
 wavpre_noio                             0.065370           2
 forloc                                  0.064714           3
 strelo                                  0.059754           3
 inisym                                  0.045581           1
 setdij_                                 0.038965         129
 densta                                  0.035269          58
 w1_copy                                 0.034490          57
 ggemm                                   0.032969          19
 stufak                                  0.032633           3
 rspher_all                              0.028359          40
 rpro1                                   0.011958          36
 racc0                                   0.009617          41
 brgrid                                  0.007746           1
 fewald                                  0.007716           3
 apply_precond                           0.006684          14
 setup_precond                           0.006591           5
 rpromu                                  0.006570          39
 raccmu_                                 0.005591          19
 w1_projall                              0.004427          14
 overl                                   0.003325         151
 fordep                                  0.003312           3
 strkin                                  0.002935           3
 rsp                                     0.001563           3
 rpromu_gemm                             0.001514          78
 overl1                                  0.000287          19
 crpa_reader                             0.000252           1
 rcp                                     0.000153           3
 set_rsgf_all                            0.000148          53
 potlok_metagga                          0.000058          50
 set_dd_magatom                          0.000046           6
 phaser                                  0.000039          66
 rotate_active_occupied_orbital          0.000029           3
 truncate_high_frequency_w1              0.000025          24
 posmap                                  0.000023           2
 vectorpot                               0.000009           1
 shift_bands_between_low_high            0.000006           5
 ---------------------------------------------------------------
 
Profiling took   0.091175  0.032604  0.008712  0.007937 seconds
Profiling took   0.114436 seconds
