 vasp.6.3.2 27Jun22 (build Jan 03 2024 23:25:20) gamma-only                     
  
 executed on           IFC15_impi date 2024.03.20  21:55:37
 running  192 mpi-ranks, with    1 threads/rank
 distrk:  each k-point on  192 cores,    1 groups
 distr:  one band on NCORE=   2 cores,   96 groups


--------------------------------------------------------------------------------------------------------


 INCAR:
   ENCUT = 500.000000
   SIGMA = 0.010000
   EDIFF = 1.00e-05
   ALGO = A
   ISMEAR = 0
   NELM = 200
   NSW = 500
   LCHARG = .FALSE.
   LWAVE = .FALSE.
   LREAL = Auto
   NCORE = 2
   IBRION = 2
   EDIFFG = -0.02
   GGA = BF
   LUSE_VDW = .TRUE.
   ZAB_VDW = -1.8867
   LBEEFENS = .TRUE.

 POTCAR:    PAW_PBE C 08Apr2002                   
 POTCAR:    PAW_PBE O 08Apr2002                   
 -----------------------------------------------------------------------------
|                                                                             |
|               ----> ADVICE to this user running VASP <----                  |
|                                                                             |
|     You have switched on vdW-DFT.                                           |
|     This routine was written and supplied by Jiri Klimes. We recommend      |
|     that you carefully read and cite the following publications:            |
|       J. Klimes, D.R. Bowler, A. Michelides                                 |
|          J. Phys.: Cond Matt. 22 022201 (2010)                              |
|       J. Klimes, D.R. Bowler, A. Michelides                                 |
|          Phys. Rev. B. 83, 195131 (2011)                                    |
|     and references therein.                                                 |
|                                                                             |
 -----------------------------------------------------------------------------

 POTCAR:    PAW_PBE C 08Apr2002                   
   SHA256 =  253f7b50bb8d59471dbedb8285d89021f4a42ed1a2c5d38a03a736e69125dd95 C/POTCAR              
   COPYR  = (c) Copyright 08Apr2002 Georg Kresse                                                    
   COPYR  = This file is part of the software VASP. Any use, copying, and all other rights are regul
   COPYR  = If you do not have a valid VASP license, you may not use, copy or distribute this file. 
   VRHFIN =C: s2p2                                                                                  
   LEXCH  = PE                                                                                      
   EATOM  =   147.1560 eV,   10.8157 Ry                                                             
                                                                                                    
   TITEL  = PAW_PBE C 08Apr2002                                                                     
   LULTRA =        F    use ultrasoft PP ?                                                          
   IUNSCR =        1    unscreen: 0-lin 1-nonlin 2-no                                               
   RPACOR =    1.200    partial core radius                                                         
   POMASS =   12.011; ZVAL   =    4.000    mass and valenz                                          
   RCORE  =    1.500    outmost cutoff radius                                                       
   RWIGS  =    1.630; RWIGS  =    0.863    wigner-seitz radius (au A)                               
   ENMAX  =  400.000; ENMIN  =  300.000 eV                                                          
   ICORE  =        2    local potential                                                             
   LCOR   =        T    correct aug charges                                                         
   LPAW   =        T    paw PP                                                                      
   EAUG   =  644.873                                                                                
   DEXC   =    0.000                                                                                
   RMAX   =    1.529    core radius for proj-oper                                                   
   RAUG   =    1.300    factor for augmentation sphere                                              
   RDEP   =    1.501    radius for radial grids                                                     
   RDEPT  =    1.300    core radius for aug-charge                                                  
                                                                                                    
   Atomic configuration                                                                             
    4 entries                                                                                       
     n  l   j            E        occ.                                                              
     1  0  0.50      -273.3789   2.0000                                                             
     2  0  0.50       -13.7508   2.0000                                                             
     2  1  0.50        -5.2854   2.0000                                                             
     3  2  1.50        -5.4423   0.0000                                                             
   Description                                                                                      
     l       E           TYP  RCUT    TYP  RCUT                                                     
     0    -13.7508458     23  1.200                                                                 
     0     -8.2022199     23  1.200                                                                 
     1     -5.2854383     23  1.500                                                                 
     1     34.0145650     23  1.500                                                                 
     2     -5.4423304      7  1.500                                                                 
  local pseudopotential read in
  partial core-charges read in
  partial kinetic energy density read in
  atomic valenz-charges read in
  non local Contribution for L=           0  read in
    real space projection operators read in
  non local Contribution for L=           0  read in
    real space projection operators read in
  non local Contribution for L=           1  read in
    real space projection operators read in
  non local Contribution for L=           1  read in
    real space projection operators read in
    PAW grid and wavefunctions read in
 
   number of l-projection  operators is LMAX  =           4
   number of lm-projection operators is LMMAX =           8
 
 POTCAR:    PAW_PBE O 08Apr2002                   
   SHA256 =  818f92134a0a090dccd8ba1447fa70422a3b330e708bb4f08108d8ae51209ddf O/POTCAR              
   COPYR  = (c) Copyright 08Apr2002 Georg Kresse                                                    
   COPYR  = This file is part of the software VASP. Any use, copying, and all other rights are regul
   COPYR  = If you do not have a valid VASP license, you may not use, copy or distribute this file. 
   VRHFIN =O: s2p4                                                                                  
   LEXCH  = PE                                                                                      
   EATOM  =   432.3788 eV,   31.7789 Ry                                                             
                                                                                                    
   TITEL  = PAW_PBE O 08Apr2002                                                                     
   LULTRA =        F    use ultrasoft PP ?                                                          
   IUNSCR =        1    unscreen: 0-lin 1-nonlin 2-no                                               
   RPACOR =    1.200    partial core radius                                                         
   POMASS =   16.000; ZVAL   =    6.000    mass and valenz                                          
   RCORE  =    1.520    outmost cutoff radius                                                       
   RWIGS  =    1.550; RWIGS  =    0.820    wigner-seitz radius (au A)                               
   ENMAX  =  400.000; ENMIN  =  300.000 eV                                                          
   ICORE  =        2    local potential                                                             
   LCOR   =        T    correct aug charges                                                         
   LPAW   =        T    paw PP                                                                      
   EAUG   =  605.392                                                                                
   DEXC   =    0.000                                                                                
   RMAX   =    1.553    core radius for proj-oper                                                   
   RAUG   =    1.300    factor for augmentation sphere                                              
   RDEP   =    1.550    radius for radial grids                                                     
   RDEPT  =    1.329    core radius for aug-charge                                                  
                                                                                                    
   Atomic configuration                                                                             
    4 entries                                                                                       
     n  l   j            E        occ.                                                              
     1  0  0.50      -514.6923   2.0000                                                             
     2  0  0.50       -23.9615   2.0000                                                             
     2  1  0.50        -9.0305   4.0000                                                             
     3  2  1.50        -9.5241   0.0000                                                             
   Description                                                                                      
     l       E           TYP  RCUT    TYP  RCUT                                                     
     0    -23.9615318     23  1.200                                                                 
     0     -9.5240782     23  1.200                                                                 
     1     -9.0304911     23  1.520                                                                 
     1      8.1634956     23  1.520                                                                 
     2     -9.5240782      7  1.500                                                                 
  local pseudopotential read in
  partial core-charges read in
  partial kinetic energy density read in
  kinetic energy density of atom read in
  atomic valenz-charges read in
  non local Contribution for L=           0  read in
    real space projection operators read in
  non local Contribution for L=           0  read in
    real space projection operators read in
  non local Contribution for L=           1  read in
    real space projection operators read in
  non local Contribution for L=           1  read in
    real space projection operators read in
    PAW grid and wavefunctions read in
 
   number of l-projection  operators is LMAX  =           4
   number of lm-projection operators is LMMAX =           8
 
 -----------------------------------------------------------------------------
|                                                                             |
|               ----> ADVICE to this user running VASP <----                  |
|                                                                             |
|     You have a (more or less) 'small supercell' and for smaller cells       |
|     it is recommended to use the reciprocal-space projection scheme!        |
|     The real-space optimization is not efficient for small cells and it     |
|     is also less accurate ...                                               |
|     Therefore, set LREAL=.FALSE. in the INCAR file.                         |
|                                                                             |
 -----------------------------------------------------------------------------

 Optimization of the real space projectors (new method)

 maximal supplied QI-value         = 25.13
 optimisation between [QCUT,QGAM] = [ 11.31, 22.87] = [ 35.82,146.48] Ry 
 Optimized for a Real-space Cutoff    1.00 Angstroem

   l    n(q)    QCUT    max X(q) W(low)/X(q) W(high)/X(q)  e(spline) 
   0      7    11.310   115.676    0.43E-03    0.13E-02    0.19E-06
   0      7    11.310    87.132    0.43E-03    0.13E-02    0.18E-06
   1      6    11.310     4.429    0.42E-03    0.74E-03    0.11E-06
   1      6    11.310     2.733    0.34E-03    0.55E-03    0.92E-07
 Optimization of the real space projectors (new method)

 maximal supplied QI-value         = 24.76
 optimisation between [QCUT,QGAM] = [ 11.39, 22.77] = [ 36.31,145.25] Ry 
 Optimized for a Real-space Cutoff    1.00 Angstroem

   l    n(q)    QCUT    max X(q) W(low)/X(q) W(high)/X(q)  e(spline) 
   0      7    11.387    20.381    0.39E-03    0.13E-02    0.15E-06
   0      7    11.387    15.268    0.42E-03    0.14E-02    0.17E-06
   1      6    11.387     5.964    0.41E-03    0.11E-02    0.17E-06
   1      6    11.387     5.382    0.39E-03    0.87E-03    0.15E-06
 -----------------------------------------------------------------------------
|                                                                             |
|               ----> ADVICE to this user running VASP <----                  |
|                                                                             |
|     You enforced a specific xc type in the INCAR file but a different       |
|     type was found in the POTCAR file.                                      |
|     I HOPE YOU KNOW WHAT YOU ARE DOING!                                     |
|                                                                             |
 -----------------------------------------------------------------------------

  PAW_PBE C 08Apr2002                   :
 energy of atom  1       EATOM= -147.1560
 kinetic energy error for atom=    0.0076 (will be added to EATOM!!)
  PAW_PBE O 08Apr2002                   :
 energy of atom  2       EATOM= -432.3788
 kinetic energy error for atom=    0.0224 (will be added to EATOM!!)
 
 
 POSCAR: CO
  positions in cartesian coordinates
  velocities in cartesian coordinates
  No initial velocities read in
 exchange correlation table for  LEXCH =       17
   RHO(1)=    0.500       N(1)  =     2000
   RHO(2)=  100.500       N(2)  =     4000

 VTST: version 4.1, (05/19/21)

 CHAIN: initializing optimizer
 
 OPT: Using VASP Conjugate-Gradient optimizer
 CHAIN: Read ICHAIN            0
 
 POSCAR: CO
  positions in cartesian coordinates
  velocities in cartesian coordinates
  No initial velocities read in
 


--------------------------------------------------------------------------------------------------------


 ion  position               nearest neighbor table
   1  0.500  0.499  0.498-   2 1.14
   2  0.500  0.499  0.539-   1 1.14
 
  LATTYP: Found a simple orthorhombic cell.
 ALAT       =    12.5054068306
 B/A-ratio  =     1.2247448714
 C/A-ratio  =     2.2474894410
  
  Lattice vectors:
  
 A1 = (  12.5054068306,   0.0000000000,   0.0000000000)
 A2 = (   0.0000000000,  15.3159328805,   0.0000000000)
 A3 = (   0.0000000000,   0.0000000000,  28.1057698072)


Analysis of symmetry for initial positions (statically):
=====================================================================
 Subroutine PRICEL returns:
 Original cell was already a primitive cell.
 

 Routine SETGRP: Setting up the symmetry group for a 
 simple orthorhombic supercell.


 Subroutine GETGRP returns: Found  4 space group operations
 (whereof  1 operations were pure point group operations)
 out of a pool of  8 trial point group operations.


The static configuration has the point symmetry C_1 .
 The point group associated with its full space group is C_2v.


Analysis of symmetry for dynamics (positions and initial velocities):
=====================================================================
 Subroutine PRICEL returns:
 Original cell was already a primitive cell.
 

 Routine SETGRP: Setting up the symmetry group for a 
 simple orthorhombic supercell.


 Subroutine GETGRP returns: Found  4 space group operations
 (whereof  1 operations were pure point group operations)
 out of a pool of  8 trial point group operations.


The dynamic configuration has the point symmetry C_1 .
 The point group associated with its full space group is C_2v.


 Subroutine INISYM returns: Found  4 space group operations
 (whereof  1 operations are pure point group operations),
 and found     1 'primitive' translations


----------------------------------------------------------------------------------------

                                     Primitive cell                                     

  volume of cell :    5383.1535

  direct lattice vectors                    reciprocal lattice vectors
    12.505406831  0.000000000  0.000000000     0.079965411  0.000000000  0.000000000
     0.000000000 15.315932881  0.000000000     0.000000000  0.065291485  0.000000000
     0.000000000  0.000000000 28.105769807     0.000000000  0.000000000  0.035579883

  length of vectors
    12.505406831 15.315932881 28.105769807     0.079965411  0.065291485  0.035579883

  position of ions in fractional coordinates (direct lattice)
     0.499783820  0.499479859  0.498118361
     0.499783820  0.499479859  0.538679428

  ion indices of the primitive-cell ions
   primitive index   ion index
                 1           1
                 2           2

----------------------------------------------------------------------------------------

 
 
 KPOINTS: KPOINTS created by Atomic Simulation Env

Automatic generation of k-mesh.
 Grid dimensions read from file:
 generate k-points for:    1    1    1

 Generating k-lattice:

  Cartesian coordinates                     Fractional coordinates (reciprocal lattice)
     0.079965411  0.000000000  0.000000000     1.000000000  0.000000000  0.000000000
     0.000000000  0.065291485  0.000000000     0.000000000  1.000000000  0.000000000
     0.000000000  0.000000000  0.035579883     0.000000000  0.000000000  1.000000000

  Length of vectors
     0.079965411  0.065291485  0.035579883

  Shift w.r.t. Gamma in fractional coordinates (k-lattice)
     0.000000000  0.000000000  0.000000000

 
 Subroutine IBZKPT returns following result:
 ===========================================
 
 Found      1 irreducible k-points:
 
 Following reciprocal coordinates:
            Coordinates               Weight
  0.000000  0.000000  0.000000      1.000000
 
 Following cartesian coordinates:
            Coordinates               Weight
  0.000000  0.000000  0.000000      1.000000
 


--------------------------------------------------------------------------------------------------------




 Dimension of arrays:
   k-points           NKPTS =      1   k-points in BZ     NKDIM =      1   number of bands    NBANDS=     96
   number of dos      NEDOS =    301   number of ions     NIONS =      2
   non local maximal  LDIM  =      4   non local SUM 2l+1 LMDIM =      8
   total plane-waves  NPLWV = 940800
   max r-space proj   IRMAX =    790   max aug-charges    IRDMAX=   2467
   dimension x,y,z NGX =    70 NGY =   84 NGZ =  160
   dimension x,y,z NGXF=   140 NGYF=  168 NGZF=  320
   support grid    NGXF=   140 NGYF=  168 NGZF=  320
   ions per type =               1   1
   NGX,Y,Z   is equivalent  to a cutoff of   9.31,  9.12,  9.46 a.u.
   NGXF,Y,Z  is equivalent  to a cutoff of  18.61, 18.24, 18.93 a.u.

 SYSTEM =  unknown system                          
 POSCAR =  CO                                      

 Startparameter for this run:
   NWRITE =      2    write-flag & timer
   PREC   = normal    normal or accurate (medium, high low for compatibility)
   ISTART =      0    job   : 0-new  1-cont  2-samecut
   ICHARG =      2    charge: 1-file 2-atom 10-const
   ISPIN  =      1    spin polarized calculation?
   LNONCOLLINEAR =      F non collinear calculations
   LSORBIT =      F    spin-orbit coupling
   INIWAV =      1    electr: 0-lowe 1-rand  2-diag
   LASPH  =      F    aspherical Exc in radial PAW
 Electronic Relaxation 1
   ENCUT  =  500.0 eV  36.75 Ry    6.06 a.u.  22.80 27.92 51.24*2*pi/ulx,y,z
   ENINI  =  500.0     initial cutoff
   ENAUG  =  644.9 eV  augmentation charge cutoff
   NELM   =    200;   NELMIN=  2; NELMDL=  0     # of ELM steps 
   EDIFF  = 0.1E-04   stopping-criterion for ELM
   LREAL  =      T    real-space projection
   NLSPLINE    = F    spline interpolate recip. space projectors
   LCOMPAT=      F    compatible to vasp.4.4
   GGA_COMPAT  = T    GGA compatible to vasp.4.4-vasp.4.6
   LMAXPAW     = -100 max onsite density
   LMAXMIX     =    2 max onsite mixed and CHGCAR
   VOSKOWN=      0    Vosko Wilk Nusair interpolation
   ROPT   =   -0.00050  -0.00050
 Ionic relaxation
   EDIFFG = -.2E-01   stopping-criterion for IOM
   NSW    =    500    number of steps for IOM
   NBLOCK =      1;   KBLOCK =    500    inner block; outer block 
   IBRION =      2    ionic relax: 0-MD 1-quasi-New 2-CG
   NFREE  =      1    steps in history (QN), initial steepest desc. (CG)
   ISIF   =      2    stress and relaxation
   IWAVPR =     11    prediction:  0-non 1-charg 2-wave 3-comb
   ISYM   =      2    0-nonsym 1-usesym 2-fastsym
   LCORR  =      T    Harris-Foulkes like correction to forces

   POTIM  = 0.5000    time-step for ionic-motion
   TEIN   =    0.0    initial temperature
   TEBEG  =    0.0;   TEEND  =   0.0 temperature during run
   SMASS  =  -3.00    Nose mass-parameter (am)
   estimated Nose-frequenzy (Omega)   =  0.10E-29 period in steps = 0.13E+47 mass=  -0.357E-26a.u.
   SCALEE = 1.0000    scale energy and forces
   NPACO  =    256;   APACO  = 10.0  distance and # of slots for P.C.
   PSTRESS=    0.0 pullay stress

  Mass of Ions in am
   POMASS =  12.01 16.00
  Ionic Valenz
   ZVAL   =   4.00  6.00
  Atomic Wigner-Seitz radii
   RWIGS  =  -1.00 -1.00
  virtual crystal weights 
   VCA    =   1.00  1.00
   NELECT =      10.0000    total number of electrons
   NUPDOWN=      -1.0000    fix difference up-down

 DOS related values:
   EMIN   =  10.00;   EMAX   =-10.00  energy-range for DOS
   EFERMI =   0.00
   ISMEAR =     0;   SIGMA  =   0.01  broadening in eV -4-tet -1-fermi 0-gaus

 Electronic relaxation 2 (details)
   IALGO  =     58    algorithm
   LDIAG  =      T    sub-space diagonalisation (order eigenvalues)
   LSUBROT=      F    optimize rotation matrix (better conditioning)
   TURBO    =      0    0=normal 1=particle mesh
   IRESTART =      0    0=no restart 2=restart with 2 vectors
   NREBOOT  =      0    no. of reboots
   NMIN     =      0    reboot dimension
   EREF     =   0.00    reference energy to select bands
   IMIX   =      4    mixing-type and parameters
     AMIX     =   0.40;   BMIX     =  1.00
     AMIX_MAG =   1.60;   BMIX_MAG =  1.00
     AMIN     =   0.10
     WC   =   100.;   INIMIX=   1;  MIXPRE=   1;  MAXMIX= -45

 Intra band minimization:
   WEIMIN = 0.0010     energy-eigenvalue tresh-hold
   EBREAK =  0.26E-07  absolut break condition
   DEPER  =   0.30     relativ break condition  

   TIME   =   0.40     timestep for ELM

  volume/ion in A,a.u.               =    2691.58     18163.66
  Fermi-wavevector in a.u.,A,eV,Ry     =   0.201247  0.380302  0.551040  0.040500
  Thomas-Fermi vector in A             =   0.956574
 
 Write flags
   LWAVE        =      F    write WAVECAR
   LDOWNSAMPLE  =      F    k-point downsampling of WAVECAR
   LCHARG       =      F    write CHGCAR
   LVTOT        =      F    write LOCPOT, total local potential
   LVHAR        =      F    write LOCPOT, Hartree potential only
   LELF         =      F    write electronic localiz. function (ELF)
   LORBIT       =      0    0 simple, 1 ext, 2 COOP (PROOUT), +10 PAW based schemes


 Dipole corrections
   LMONO  =      F    monopole corrections only (constant potential shift)
   LDIPOL =      F    correct potential (dipole corrections)
   IDIPOL =      0    1-x, 2-y, 3-z, 4-all directions 
   EPSILON=  1.0000000 bulk dielectric constant

 Exchange correlation treatment:
   GGA     =    BF    GGA type
   LEXCH   =    17    internal setting for exchange type
   LIBXC   =     F    Libxc                    
   VOSKOWN =     0    Vosko Wilk Nusair interpolation
   LHFCALC =     F    Hartree Fock is set to
   LHFONE  =     F    Hartree Fock one center treatment
   AEXX    =    0.0000 exact exchange contribution

 vdW DFT:
   LUSE_VDW   =     T    switch on vdW DFT
   Zab_VDW    =******    correlation parameter
   PARAM1     =0.1234
   PARAM2     =1.0000
   PARAM3     =0.0000
   -- rVV10 --
   BPARAM     = 6.3000
   CPARAM     = 0.0093

 Linear response parameters
   LEPSILON=     F    determine dielectric tensor
   LRPA    =     F    only Hartree local field effects (RPA)
   LNABLA  =     F    use nabla operator in PAW spheres
   LVEL    =     F    velocity operator in full k-point grid
   CSHIFT  =0.1000    complex shift for real part using Kramers Kronig
   OMEGAMAX=  -1.0    maximum frequency
   DEG_THRESHOLD= 0.2000000E-02 threshold for treating states as degnerate
   RTIME   =   -0.100 relaxation time in fs
  (WPLASMAI=    0.000 imaginary part of plasma frequency in eV, 0.658/RTIME)
   DFIELD  = 0.0000000 0.0000000 0.0000000 field for delta impulse in time
 
  Optional k-point grid parameters
   LKPOINTS_OPT  =     F    use optional k-point grid
   KPOINTS_OPT_MODE=     1    mode for optional k-point grid
 
 Orbital magnetization related:
   ORBITALMAG=     F  switch on orbital magnetization
   LCHIMAG   =     F  perturbation theory with respect to B field
   DQ        =  0.001000  dq finite difference perturbation B field
   LLRAUG    =     F  two centre corrections for induced B field



--------------------------------------------------------------------------------------------------------


 conjugate gradient relaxation of ions
 charge density and potential will be updated during run
 non-spin polarized calculation
 Conjugate gradient for all bands (Freysoldt, et al. PRB 79, 241103 (2009))
 preconditioned conjugated gradient                                        
 perform sub-space diagonalisation
    before iterative eigenvector-optimisation
 modified Broyden-mixing scheme, WC =      100.0
 initial mixing is a Kerker type mixing with AMIX =  0.4000 and BMIX =      1.0000
 Hartree-type preconditioning will be used
 using additional bands           91
 real space projection scheme for non local part
 use partial core corrections
 no Harris-corrections to forces 
 use gradient corrections 
 use of overlap-Matrix (Vanderbilt PP)
 Gauss-broadening in eV      SIGMA  =   0.01


--------------------------------------------------------------------------------------------------------


  energy-cutoff  :      500.00
  volume of cell :     5383.15
      direct lattice vectors                 reciprocal lattice vectors
    12.505406831  0.000000000  0.000000000     0.079965411  0.000000000  0.000000000
     0.000000000 15.315932881  0.000000000     0.000000000  0.065291485  0.000000000
     0.000000000  0.000000000 28.105769807     0.000000000  0.000000000  0.035579883

  length of vectors
    12.505406831 15.315932881 28.105769807     0.079965411  0.065291485  0.035579883


 
 k-points in units of 2pi/SCALE and weight: KPOINTS created by Atomic Simulation Env
   0.00000000  0.00000000  0.00000000       1.000
 
 k-points in reciprocal lattice and weights: KPOINTS created by Atomic Simulation Env
   0.00000000  0.00000000  0.00000000       1.000
 
 position of ions in fractional coordinates (direct lattice) 
   0.49978382  0.49947986  0.49811836
   0.49978382  0.49947986  0.53867943
 
 position of ions in cartesian coordinates  (Angst):
   6.25000000  7.65000000 14.00000000
   6.25000000  7.65000000 15.14000000
 


--------------------------------------------------------------------------------------------------------


 use parallel FFT for orbitals z direction half grid
 k-point   1 :   0.0000 0.0000 0.0000  plane waves:   68289

 maximum and minimum number of plane-waves per node :     34147    34142

 maximum number of plane-waves:     68289
 maximum index in each direction: 
   IXMAX=   22   IYMAX=   27   IZMAX=   51
   IXMIN=  -22   IYMIN=  -27   IZMIN=    0


 real space projection operators:
  total allocation   :         90.56 KBytes
  max/ min on nodes  :         45.44         45.12


 parallel 3D FFT for wavefunctions:
    minimum data exchange during FFTs selected (reduces bandwidth)
 parallel 3D FFT for charge:
    minimum data exchange during FFTs selected (reduces bandwidth)


 total amount of memory used by VASP MPI-rank0    65483. kBytes
=======================================================================

   base      :      30000. kBytes
   nonlr-proj:         55. kBytes
   fftplans  :      11899. kBytes
   grid      :      21887. kBytes
   one-center:          1. kBytes
   wavefun   :       1641. kBytes
 
     INWAV:  cpu time      0.0001: real time      0.0001
 Broyden mixing: mesh for mixing (old mesh)
   NGX = 45   NGY = 55   NGZ =103
  (NGX  =140   NGY  =168   NGZ  =320)
  gives a total of 254925 points

 initial charge density was supplied:
 charge density of overlapping atoms calculated
 number of electron      10.0000000 magnetization 
 charge density for first step will be calculated from the start-wavefunctions


--------------------------------------------------------------------------------------------------------


 Maximum index for non-local projection operator          366
 Maximum index for augmentation-charges            0 (set IRDMAX)


--------------------------------------------------------------------------------------------------------


 First call to EWALD:  gamma=   0.101
 Maximum number of real-space cells 4x 3x 2
 Maximum number of reciprocal cells 2x 2x 4

    FEWALD:  cpu time      0.0063: real time      0.0063


--------------------------------------- Iteration      1(   1)  ---------------------------------------


vdW kernel read from vdw_kernel.bindat
  0.0000  0.2424  0.5071  0.7962  1.1119  1.4567  1.8333  2.2446  2.6937  3.1842
  3.7199  4.3049  4.9438  5.6415  6.4036  7.2358  8.1446  9.1372 10.2212 11.4050
 12.6979 14.1099 15.6519 17.3360 19.1751 21.1837 23.3773 25.7729 28.3892 31.2465
 34.3669 37.7748 41.4965 45.5611 50.0000
 
    POTLOK:  cpu time      3.5229: real time      3.5342
    SETDIJ:  cpu time      0.0108: real time      0.0111
    TRIAL :  cpu time      0.7391: real time      0.7960
    CORREC:  cpu time      0.0006: real time      0.0006
    --------------------------------------------
      LOOP:  cpu time      4.2782: real time      4.3552

 eigenvalue-minimisations  :   192
 total energy-change (2. order) : 0.1093686E+03  (-0.2605527E+03)
 number of electron      10.0000000 magnetization 
 augmentation part       10.0000000 magnetization 

 Free energy of the ion-electron system (eV)
  ---------------------------------------------------
  alpha Z        PSCENC =         0.08117130
  Ewald energy   TEWEN  =       212.00050728
  -Hartree energ DENC   =      -671.39510913
  -exchange      EXHF   =         0.00000000
  -V(xc)+E(xc)   XCENC  =        39.66938919
  PAW double counting   =       455.07029581     -457.86403136
  entropy T*S    EENTRO =        -0.00000000
  eigenvalues    EBANDS =       -55.52947959
  atomic energy  EATOM  =       587.33585529
  ---------------------------------------------------
  free energy    TOTEN  =       109.36859879 eV

  energy without entropy =      109.36859879  energy(sigma->0) =      109.36859879


--------------------------------------------------------------------------------------------------------




--------------------------------------- Iteration      1(   2)  ---------------------------------------


    TRIAL :  cpu time      1.3795: real time      1.3812
    CORREC:  cpu time      0.0005: real time      0.0005
    --------------------------------------------
      LOOP:  cpu time      1.3848: real time      1.3865

 eigenvalue-minimisations  :   384
 total energy-change (2. order) :-0.1214499E+03  (-0.1214499E+03)
 number of electron      10.0000000 magnetization 
 augmentation part       10.0000000 magnetization 

 Free energy of the ion-electron system (eV)
  ---------------------------------------------------
  alpha Z        PSCENC =         0.08117130
  Ewald energy   TEWEN  =       212.00050728
  -Hartree energ DENC   =      -671.39510913
  -exchange      EXHF   =         0.00000000
  -V(xc)+E(xc)   XCENC  =        39.66938919
  PAW double counting   =       455.07029581     -457.86403136
  entropy T*S    EENTRO =        -0.00000000
  eigenvalues    EBANDS =      -176.97939295
  atomic energy  EATOM  =       587.33585529
  ---------------------------------------------------
  free energy    TOTEN  =       -12.08131457 eV

  energy without entropy =      -12.08131457  energy(sigma->0) =      -12.08131457


--------------------------------------------------------------------------------------------------------




--------------------------------------- Iteration      1(   3)  ---------------------------------------


    TRIAL :  cpu time      0.5754: real time      0.5764
    CORREC:  cpu time      0.0004: real time      0.0004
    --------------------------------------------
      LOOP:  cpu time      0.5789: real time      0.5799

 eigenvalue-minimisations  :   192
 total energy-change (2. order) :-0.9654986E+00  (-0.9654986E+00)
 number of electron      10.0000000 magnetization 
 augmentation part       10.0000000 magnetization 

 Free energy of the ion-electron system (eV)
  ---------------------------------------------------
  alpha Z        PSCENC =         0.08117130
  Ewald energy   TEWEN  =       212.00050728
  -Hartree energ DENC   =      -671.39510913
  -exchange      EXHF   =         0.00000000
  -V(xc)+E(xc)   XCENC  =        39.66938919
  PAW double counting   =       455.07029581     -457.86403136
  entropy T*S    EENTRO =        -0.00000000
  eigenvalues    EBANDS =      -177.94489151
  atomic energy  EATOM  =       587.33585529
  ---------------------------------------------------
  free energy    TOTEN  =       -13.04681312 eV

  energy without entropy =      -13.04681312  energy(sigma->0) =      -13.04681312


--------------------------------------------------------------------------------------------------------




--------------------------------------- Iteration      1(   4)  ---------------------------------------


    TRIAL :  cpu time      1.2565: real time      1.2577
    CORREC:  cpu time      0.0004: real time      0.0004
    --------------------------------------------
      LOOP:  cpu time      1.2595: real time      1.2608

 eigenvalue-minimisations  :   384
 total energy-change (2. order) :-0.3496056E-02  (-0.3496056E-02)
 number of electron      10.0000000 magnetization 
 augmentation part       10.0000000 magnetization 

 Free energy of the ion-electron system (eV)
  ---------------------------------------------------
  alpha Z        PSCENC =         0.08117130
  Ewald energy   TEWEN  =       212.00050728
  -Hartree energ DENC   =      -671.39510913
  -exchange      EXHF   =         0.00000000
  -V(xc)+E(xc)   XCENC  =        39.66938919
  PAW double counting   =       455.07029581     -457.86403136
  entropy T*S    EENTRO =        -0.00000000
  eigenvalues    EBANDS =      -177.94838756
  atomic energy  EATOM  =       587.33585529
  ---------------------------------------------------
  free energy    TOTEN  =       -13.05030918 eV

  energy without entropy =      -13.05030918  energy(sigma->0) =      -13.05030918


--------------------------------------------------------------------------------------------------------




--------------------------------------- Iteration      1(   5)  ---------------------------------------


    TRIAL :  cpu time      0.6154: real time      0.6165
    CORREC:  cpu time      0.0005: real time      0.0005
    CHARGE:  cpu time      0.6042: real time      0.6044
    --------------------------------------------
      LOOP:  cpu time      1.2230: real time      1.2243

 eigenvalue-minimisations  :   192
 total energy-change (2. order) :-0.3040623E-07  (-0.3041618E-07)
 number of electron       9.9999994 magnetization 
 augmentation part        0.7488004 magnetization 

 Free energy of the ion-electron system (eV)
  ---------------------------------------------------
  alpha Z        PSCENC =         0.08117130
  Ewald energy   TEWEN  =       212.00050728
  -Hartree energ DENC   =      -671.39510913
  -exchange      EXHF   =         0.00000000
  -V(xc)+E(xc)   XCENC  =        39.66938919
  PAW double counting   =       455.07029581     -457.86403136
  entropy T*S    EENTRO =        -0.00000000
  eigenvalues    EBANDS =      -177.94838759
  atomic energy  EATOM  =       587.33585529
  ---------------------------------------------------
  free energy    TOTEN  =       -13.05030921 eV

  energy without entropy =      -13.05030921  energy(sigma->0) =      -13.05030921


--------------------------------------------------------------------------------------------------------




--------------------------------------- Iteration      1(   6)  ---------------------------------------


    POTLOK:  cpu time      2.2742: real time      2.2794
    SETDIJ:  cpu time      0.0228: real time      0.0228
    TRIAL :  cpu time      0.3945: real time      0.3957
    CORREC:  cpu time      3.1201: real time      3.1241
    CHARGE:  cpu time      0.5794: real time      0.5802
    --------------------------------------------
      LOOP:  cpu time      6.3943: real time      6.4054

 eigenvalue-minimisations  :     0
 total energy-change (2. order) : 0.2406345E+01  (-0.1159189E+01)
 number of electron       9.9999994 magnetization 
 augmentation part        0.6871856 magnetization 

 Free energy of the ion-electron system (eV)
  ---------------------------------------------------
  alpha Z        PSCENC =         0.08117130
  Ewald energy   TEWEN  =       212.00050728
  -Hartree energ DENC   =      -726.42088088
  -exchange      EXHF   =         0.00000000
  -V(xc)+E(xc)   XCENC  =        42.81232719
  PAW double counting   =       879.40963068     -882.61019841
  entropy T*S    EENTRO =        -0.00000000
  eigenvalues    EBANDS =      -123.25237660
  atomic energy  EATOM  =       587.33585529
  ---------------------------------------------------
  free energy    TOTEN  =       -10.64396414 eV

  energy without entropy =      -10.64396414  energy(sigma->0) =      -10.64396414


--------------------------------------------------------------------------------------------------------




--------------------------------------- Iteration      1(   7)  ---------------------------------------


    POTLOK:  cpu time      2.2522: real time      2.2543
    SETDIJ:  cpu time      0.0080: real time      0.0080
    TRIAL :  cpu time      0.2989: real time      0.2992
    CORREC:  cpu time      3.2401: real time      3.2440
    CHARGE:  cpu time      0.6662: real time      0.6672
    --------------------------------------------
      LOOP:  cpu time      6.4676: real time      6.4749

 eigenvalue-minimisations  :     0
 total energy-change (2. order) :-0.1169298E+01  (-0.1628504E+00)
 number of electron       9.9999994 magnetization 
 augmentation part        0.6650833 magnetization 

 Free energy of the ion-electron system (eV)
  ---------------------------------------------------
  alpha Z        PSCENC =         0.08117130
  Ewald energy   TEWEN  =       212.00050728
  -Hartree energ DENC   =      -699.61720371
  -exchange      EXHF   =         0.00000000
  -V(xc)+E(xc)   XCENC  =        41.30849145
  PAW double counting   =       860.81888396     -863.78161100
  entropy T*S    EENTRO =        -0.00000000
  eigenvalues    EBANDS =      -149.95935662
  atomic energy  EATOM  =       587.33585529
  ---------------------------------------------------
  free energy    TOTEN  =       -11.81326205 eV

  energy without entropy =      -11.81326205  energy(sigma->0) =      -11.81326205


--------------------------------------------------------------------------------------------------------




--------------------------------------- Iteration      1(   8)  ---------------------------------------


    POTLOK:  cpu time      2.3363: real time      2.3385
    SETDIJ:  cpu time      0.0154: real time      0.0154
    TRIAL :  cpu time      0.3168: real time      0.3182
    CORREC:  cpu time      3.0652: real time      3.0684
    CHARGE:  cpu time      0.6334: real time      0.6341
    --------------------------------------------
      LOOP:  cpu time      6.3694: real time      6.3769

 eigenvalue-minimisations  :     0
 total energy-change (2. order) :-0.1627752E+00  (-0.5793863E-01)
 number of electron       9.9999993 magnetization 
 augmentation part        0.6612753 magnetization 

 Free energy of the ion-electron system (eV)
  ---------------------------------------------------
  alpha Z        PSCENC =         0.08117130
  Ewald energy   TEWEN  =       212.00050728
  -Hartree energ DENC   =      -697.38753423
  -exchange      EXHF   =         0.00000000
  -V(xc)+E(xc)   XCENC  =        41.19190084
  PAW double counting   =       869.92431361     -872.74544847
  entropy T*S    EENTRO =        -0.00000000
  eigenvalues    EBANDS =      -152.37680288
  atomic energy  EATOM  =       587.33585529
  ---------------------------------------------------
  free energy    TOTEN  =       -11.97603727 eV

  energy without entropy =      -11.97603727  energy(sigma->0) =      -11.97603727


--------------------------------------------------------------------------------------------------------




--------------------------------------- Iteration      1(   9)  ---------------------------------------


    POTLOK:  cpu time      2.4180: real time      2.4212
    SETDIJ:  cpu time      0.0599: real time      0.0599
    TRIAL :  cpu time      0.3027: real time      0.3027
    CORREC:  cpu time      2.9332: real time      2.9361
    CHARGE:  cpu time      0.6331: real time      0.6338
    --------------------------------------------
      LOOP:  cpu time      6.3487: real time      6.3556

 eigenvalue-minimisations  :     0
 total energy-change (2. order) :-0.5792022E-01  (-0.1994588E-01)
 number of electron       9.9999993 magnetization 
 augmentation part        0.6616501 magnetization 

 Free energy of the ion-electron system (eV)
  ---------------------------------------------------
  alpha Z        PSCENC =         0.08117130
  Ewald energy   TEWEN  =       212.00050728
  -Hartree energ DENC   =      -696.60857741
  -exchange      EXHF   =         0.00000000
  -V(xc)+E(xc)   XCENC  =        41.15921667
  PAW double counting   =       877.59535689     -880.38402900
  entropy T*S    EENTRO =        -0.00000000
  eigenvalues    EBANDS =      -153.21345851
  atomic energy  EATOM  =       587.33585529
  ---------------------------------------------------
  free energy    TOTEN  =       -12.03395749 eV

  energy without entropy =      -12.03395749  energy(sigma->0) =      -12.03395749


--------------------------------------------------------------------------------------------------------




--------------------------------------- Iteration      1(  10)  ---------------------------------------


    POTLOK:  cpu time      2.2577: real time      2.2608
    SETDIJ:  cpu time      0.0108: real time      0.0108
    TRIAL :  cpu time      0.2996: real time      0.3008
    CORREC:  cpu time      3.0975: real time      3.1114
    CHARGE:  cpu time      0.6314: real time      0.6322
    --------------------------------------------
      LOOP:  cpu time      6.2993: real time      6.3183

 eigenvalue-minimisations  :     0
 total energy-change (2. order) :-0.1990211E-01  (-0.8720518E-02)
 number of electron       9.9999993 magnetization 
 augmentation part        0.6615085 magnetization 

 Free energy of the ion-electron system (eV)
  ---------------------------------------------------
  alpha Z        PSCENC =         0.08117130
  Ewald energy   TEWEN  =       212.00050728
  -Hartree energ DENC   =      -695.80867111
  -exchange      EXHF   =         0.00000000
  -V(xc)+E(xc)   XCENC  =        41.12128179
  PAW double counting   =       881.27962498     -884.06783329
  entropy T*S    EENTRO =        -0.00000000
  eigenvalues    EBANDS =      -153.99579585
  atomic energy  EATOM  =       587.33585529
  ---------------------------------------------------
  free energy    TOTEN  =       -12.05385960 eV

  energy without entropy =      -12.05385960  energy(sigma->0) =      -12.05385960


--------------------------------------------------------------------------------------------------------




--------------------------------------- Iteration      1(  11)  ---------------------------------------


    POTLOK:  cpu time      2.2448: real time      2.2472
    SETDIJ:  cpu time      0.0080: real time      0.0079
    TRIAL :  cpu time      0.3002: real time      0.3015
    CORREC:  cpu time      3.0224: real time      3.0367
    CHARGE:  cpu time      0.6167: real time      0.6179
    --------------------------------------------
      LOOP:  cpu time      6.1942: real time      6.2133

 eigenvalue-minimisations  :     0
 total energy-change (2. order) :-0.8696845E-02  (-0.3121189E-02)
 number of electron       9.9999993 magnetization 
 augmentation part        0.6617113 magnetization 

 Free energy of the ion-electron system (eV)
  ---------------------------------------------------
  alpha Z        PSCENC =         0.08117130
  Ewald energy   TEWEN  =       212.00050728
  -Hartree energ DENC   =      -695.33545587
  -exchange      EXHF   =         0.00000000
  -V(xc)+E(xc)   XCENC  =        41.09585096
  PAW double counting   =       882.28847913     -885.07543748
  entropy T*S    EENTRO =        -0.00000000
  eigenvalues    EBANDS =      -154.45352706
  atomic energy  EATOM  =       587.33585529
  ---------------------------------------------------
  free energy    TOTEN  =       -12.06255645 eV

  energy without entropy =      -12.06255645  energy(sigma->0) =      -12.06255645


--------------------------------------------------------------------------------------------------------




--------------------------------------- Iteration      1(  12)  ---------------------------------------


    POTLOK:  cpu time      2.2008: real time      2.2301
    SETDIJ:  cpu time      0.0076: real time      0.0076
    TRIAL :  cpu time      0.2970: real time      0.2982
    CORREC:  cpu time      2.9686: real time      2.9711
    CHARGE:  cpu time      0.6190: real time      0.6326
    --------------------------------------------
      LOOP:  cpu time      6.0953: real time      6.1420

 eigenvalue-minimisations  :     0
 total energy-change (2. order) :-0.3115940E-02  (-0.8241093E-03)
 number of electron       9.9999993 magnetization 
 augmentation part        0.6618147 magnetization 

 Free energy of the ion-electron system (eV)
  ---------------------------------------------------
  alpha Z        PSCENC =         0.08117130
  Ewald energy   TEWEN  =       212.00050728
  -Hartree energ DENC   =      -695.05906802
  -exchange      EXHF   =         0.00000000
  -V(xc)+E(xc)   XCENC  =        41.07770788
  PAW double counting   =       881.54459792     -884.33490646
  entropy T*S    EENTRO =        -0.00000000
  eigenvalues    EBANDS =      -154.71153759
  atomic energy  EATOM  =       587.33585529
  ---------------------------------------------------
  free energy    TOTEN  =       -12.06567239 eV

  energy without entropy =      -12.06567239  energy(sigma->0) =      -12.06567239


--------------------------------------------------------------------------------------------------------




--------------------------------------- Iteration      1(  13)  ---------------------------------------


    POTLOK:  cpu time      2.3454: real time      2.3476
    SETDIJ:  cpu time      0.0081: real time      0.0081
    TRIAL :  cpu time      0.3158: real time      0.3168
    CORREC:  cpu time      2.9031: real time      2.9056
    CHARGE:  cpu time      0.6330: real time      0.6338
    --------------------------------------------
      LOOP:  cpu time      6.2076: real time      6.2140

 eigenvalue-minimisations  :     0
 total energy-change (2. order) :-0.8240357E-03  (-0.2090018E-03)
 number of electron       9.9999993 magnetization 
 augmentation part        0.6618014 magnetization 

 Free energy of the ion-electron system (eV)
  ---------------------------------------------------
  alpha Z        PSCENC =         0.08117130
  Ewald energy   TEWEN  =       212.00050728
  -Hartree energ DENC   =      -694.92613266
  -exchange      EXHF   =         0.00000000
  -V(xc)+E(xc)   XCENC  =        41.06845137
  PAW double counting   =       880.50314193     -883.29611393
  entropy T*S    EENTRO =        -0.00000000
  eigenvalues    EBANDS =      -154.83337700
  atomic energy  EATOM  =       587.33585529
  ---------------------------------------------------
  free energy    TOTEN  =       -12.06649642 eV

  energy without entropy =      -12.06649642  energy(sigma->0) =      -12.06649642


--------------------------------------------------------------------------------------------------------




--------------------------------------- Iteration      1(  14)  ---------------------------------------


    POTLOK:  cpu time      2.2544: real time      2.2568
    SETDIJ:  cpu time      0.0081: real time      0.0081
    TRIAL :  cpu time      0.3018: real time      0.3018
    CORREC:  cpu time      2.8373: real time      2.8505
    CHARGE:  cpu time      0.6342: real time      0.6342
    --------------------------------------------
      LOOP:  cpu time      6.0380: real time      6.0537

 eigenvalue-minimisations  :     0
 total energy-change (2. order) :-0.2090156E-03  (-0.5092711E-04)
 number of electron       9.9999993 magnetization 
 augmentation part        0.6617768 magnetization 

 Free energy of the ion-electron system (eV)
  ---------------------------------------------------
  alpha Z        PSCENC =         0.08117130
  Ewald energy   TEWEN  =       212.00050728
  -Hartree energ DENC   =      -694.89574350
  -exchange      EXHF   =         0.00000000
  -V(xc)+E(xc)   XCENC  =        41.06613531
  PAW double counting   =       879.66804133     -882.46196744
  entropy T*S    EENTRO =        -0.00000000
  eigenvalues    EBANDS =      -154.86070501
  atomic energy  EATOM  =       587.33585529
  ---------------------------------------------------
  free energy    TOTEN  =       -12.06670544 eV

  energy without entropy =      -12.06670544  energy(sigma->0) =      -12.06670544


--------------------------------------------------------------------------------------------------------




--------------------------------------- Iteration      1(  15)  ---------------------------------------


    POTLOK:  cpu time      2.1723: real time      2.1753
    SETDIJ:  cpu time      0.0080: real time      0.0080
    TRIAL :  cpu time      0.3642: real time      0.3642
    CORREC:  cpu time      3.0576: real time      3.0616
    CHARGE:  cpu time      0.6166: real time      0.6339
    --------------------------------------------
      LOOP:  cpu time      6.2211: real time      6.2453

 eigenvalue-minimisations  :     0
 total energy-change (2. order) :-0.5082632E-04  (-0.1300511E-04)
 number of electron       9.9999993 magnetization 
 augmentation part        0.6617449 magnetization 

 Free energy of the ion-electron system (eV)
  ---------------------------------------------------
  alpha Z        PSCENC =         0.08117130
  Ewald energy   TEWEN  =       212.00050728
  -Hartree energ DENC   =      -694.91279777
  -exchange      EXHF   =         0.00000000
  -V(xc)+E(xc)   XCENC  =        41.06696792
  PAW double counting   =       879.15660712     -881.95069342
  entropy T*S    EENTRO =        -0.00000000
  eigenvalues    EBANDS =      -154.84437399
  atomic energy  EATOM  =       587.33585529
  ---------------------------------------------------
  free energy    TOTEN  =       -12.06675627 eV

  energy without entropy =      -12.06675627  energy(sigma->0) =      -12.06675627


--------------------------------------------------------------------------------------------------------




--------------------------------------- Iteration      1(  16)  ---------------------------------------


    POTLOK:  cpu time      2.1908: real time      2.1935
    SETDIJ:  cpu time      0.0112: real time      0.0111
    TRIAL :  cpu time      0.3107: real time      0.3108
    CORREC:  cpu time      2.9070: real time      2.9098
    CHARGE:  cpu time      0.6337: real time      0.6344
    --------------------------------------------
      LOOP:  cpu time      6.0552: real time      6.0616

 eigenvalue-minimisations  :     0
 total energy-change (2. order) :-0.1297526E-04  (-0.3934261E-05)
 number of electron       9.9999993 magnetization 
 augmentation part        0.6617477 magnetization 

 Free energy of the ion-electron system (eV)
  ---------------------------------------------------
  alpha Z        PSCENC =         0.08117130
  Ewald energy   TEWEN  =       212.00050728
  -Hartree energ DENC   =      -694.91487900
  -exchange      EXHF   =         0.00000000
  -V(xc)+E(xc)   XCENC  =        41.06704967
  PAW double counting   =       878.85162540     -881.64569072
  entropy T*S    EENTRO =        -0.00000000
  eigenvalues    EBANDS =      -154.84240846
  atomic energy  EATOM  =       587.33585529
  ---------------------------------------------------
  free energy    TOTEN  =       -12.06676924 eV

  energy without entropy =      -12.06676924  energy(sigma->0) =      -12.06676924


--------------------------------------------------------------------------------------------------------




--------------------------------------- Iteration      1(  17)  ---------------------------------------


    POTLOK:  cpu time      2.1787: real time      2.1810
    SETDIJ:  cpu time      0.0079: real time      0.0079
    TRIAL :  cpu time      0.3138: real time      0.3148
    CORREC:  cpu time      3.0387: real time      3.0413
    EDDIAG:  cpu time      0.1251: real time      0.1298
    CHARGE:  cpu time      0.6455: real time      0.6464
    --------------------------------------------
      LOOP:  cpu time      6.3118: real time      6.3234

 eigenvalue-minimisations  :     0
 total energy-change (2. order) :-0.3938941E-05  (-0.1242671E-05)
 number of electron       9.9999993 magnetization 
 augmentation part        0.6617563 magnetization 

 Free energy of the ion-electron system (eV)
  ---------------------------------------------------
  alpha Z        PSCENC =         0.08117130
  Ewald energy   TEWEN  =       212.00050728
  -Hartree energ DENC   =      -694.92198518
  -exchange      EXHF   =         0.00000000
  -V(xc)+E(xc)   XCENC  =        41.06743761
  PAW double counting   =       878.68959548     -881.48369367
  entropy T*S    EENTRO =        -0.00000000
  eigenvalues    EBANDS =      -154.83566130
  atomic energy  EATOM  =       587.33585529
  ---------------------------------------------------
  free energy    TOTEN  =       -12.06677318 eV

  energy without entropy =      -12.06677318  energy(sigma->0) =      -12.06677318


--------------------------------------------------------------------------------------------------------


  average scaling for gradient   1.6452


 average (electrostatic) potential at core
  the test charge radii are     0.6991  0.7215
  (the norm of the test charge is              1.0000)
       1 -62.1150       2 -84.0501
 
 
 
 E-fermi :  -9.3384     XC(G=0):  -0.1545     alpha+bet : -0.0325

 Fermi energy:        -9.3384118852

 k-point     1 :       0.0000    0.0000    0.0000
  band No.  band energies     occupation 
      1     -29.6815      2.00000
      2     -14.3683      2.00000
      3     -11.9835      2.00000
      4     -11.9833      2.00000
      5      -9.3995      2.00000
      6      -2.3718      0.00000
      7      -2.3716      0.00000
      8      -0.3676      0.00000
      9       0.0862      0.00000
     10       0.1187      0.00000
     11       0.4071      0.00000
     12       0.4304      0.00000
     13       0.5344      0.00000
     14       0.5996      0.00000
     15       0.6789      0.00000
     16       0.7510      0.00000
     17       0.7840      0.00000
     18       0.8163      0.00000
     19       0.8214      0.00000
     20       0.8556      0.00000
     21       1.0576      0.00000
     22       1.0607      0.00000
     23       1.0884      0.00000
     24       1.1314      0.00000
     25       1.2335      0.00000
     26       1.2474      0.00000
     27       1.3087      0.00000
     28       1.3489      0.00000
     29       1.4021      0.00000
     30       1.4205      0.00000
     31       1.4947      0.00000
     32       1.5155      0.00000
     33       1.5351      0.00000
     34       1.5822      0.00000
     35       1.6197      0.00000
     36       1.6677      0.00000
     37       1.6933      0.00000
     38       1.7058      0.00000
     39       1.7201      0.00000
     40       1.7205      0.00000
     41       1.7521      0.00000
     42       1.7559      0.00000
     43       1.7766      0.00000
     44       1.7767      0.00000
     45       1.7901      0.00000
     46       1.7904      0.00000
     47       2.1080      0.00000
     48       2.1551      0.00000
     49       2.2024      0.00000
     50       2.2353      0.00000
     51       2.2410      0.00000
     52       2.2737      0.00000
     53       2.2845      0.00000
     54       2.2884      0.00000
     55       2.3285      0.00000
     56       2.3385      0.00000
     57       2.3508      0.00000
     58       2.3587      0.00000
     59       2.3637      0.00000
     60       2.4076      0.00000
     61       2.5748      0.00000
     62       2.6024      0.00000
     63       2.6094      0.00000
     64       2.6240      0.00000
     65       2.6774      0.00000
     66       2.6784      0.00000
     67       2.7304      0.00000
     68       2.7317      0.00000
     69       2.8734      0.00000
     70       2.9596      0.00000
     71       3.0541      0.00000
     72       3.1114      0.00000
     73       3.1448      0.00000
     74       3.1649      0.00000
     75       3.1704      0.00000
     76       3.1885      0.00000
     77       3.2238      0.00000
     78       3.2264      0.00000
     79       3.2586      0.00000
     80       3.2786      0.00000
     81       3.2850      0.00000
     82       3.3098      0.00000
     83       3.3501      0.00000
     84       3.3631      0.00000
     85       3.3994      0.00000
     86       3.4198      0.00000
     87       3.4771      0.00000
     88       3.5603      0.00000
     89       3.5806      0.00000
     90       3.6164      0.00000
     91       3.6170      0.00000
     92       3.6280      0.00000
     93       3.6367      0.00000
     94       3.6499      0.00000
     95       3.6571      0.00000
     96       3.6835      0.00000


--------------------------------------------------------------------------------------------------------


 soft charge-density along one line, spin component           1
         0         1         2         3         4         5         6         7         8         9
 total charge-density along one line
 
 pseudopotential strength for first ion, spin component:           1
 10.460  13.916   0.000   0.024  -0.000  -0.000  -0.077   0.000
 13.916  18.514   0.000   0.031  -0.000  -0.000  -0.102   0.000
  0.000   0.000  -4.432  -0.000  -0.000   8.670   0.000   0.000
  0.024   0.031  -0.000  -4.450  -0.000   0.000   8.691   0.000
 -0.000  -0.000  -0.000  -0.000  -4.432   0.000   0.000   8.670
 -0.000  -0.000   8.670   0.000   0.000 -19.109  -0.000  -0.000
 -0.077  -0.102   0.000   8.691   0.000  -0.000 -19.121  -0.000
  0.000   0.000   0.000   0.000   8.670  -0.000  -0.000 -19.109
 total augmentation occupancy for first ion, spin component:           1
  8.239  -3.800   0.000   2.139   0.000   0.000   0.401   0.000
 -3.800   2.121   0.000  -1.639   0.000   0.000  -0.245   0.000
  0.000   0.000   0.824   0.000   0.000   0.062   0.000   0.000
  2.139  -1.639   0.000   2.250   0.000   0.000   0.214   0.000
  0.000   0.000   0.000   0.000   0.824   0.000   0.000   0.062
  0.000   0.000   0.062   0.000   0.000   0.005   0.000   0.000
  0.401  -0.245   0.000   0.214   0.000   0.000   0.029   0.000
  0.000   0.000   0.000   0.000   0.062   0.000   0.000   0.005


------------------------ aborting loop because EDIFF is reached ----------------------------------------


    FORLOC:  cpu time      0.0037: real time      0.0037
    FORNL :  cpu time      0.1910: real time      0.1911
    STRESS:  cpu time      0.4470: real time      0.4483
    FORCOR:  cpu time      2.1765: real time      2.1794
    OFIELD:  cpu time      0.0011: real time      0.0012

  FORCE on cell =-STRESS in cart. coord.  units (eV):
  Direction    XX          YY          ZZ          XY          YZ          ZX
  --------------------------------------------------------------------------------------
  Alpha Z     0.08117     0.08117     0.08117
  Ewald      22.69057    -4.26150   193.57142    -0.00000    -0.00000     0.00000
  Hartree   248.37788   221.87960   224.67054    -0.00000    -0.00001    -0.00000
  E(xc)     -46.52108   -46.52085   -44.58979     0.00000    -0.00000     0.00000
  Local    -405.12801  -351.67802  -526.39424     0.00000     0.00001     0.00001
  n-local   -17.72274   -17.74910   -28.93225     0.00331    -0.00708    -0.00568
  augment     6.26277     6.26303     5.71339    -0.00003     0.00013     0.00005
  Kinetic   191.97931   191.97871   176.05407    -0.00001    -0.00001     0.00000
  Fock        0.00000     0.00000     0.00000     0.00000     0.00000     0.00000
  -------------------------------------------------------------------------------------
  Total       0.01988    -0.00696     0.17431     0.00000     0.00000     0.00000
  in kB       0.00592    -0.00207     0.05188     0.00000     0.00000     0.00000
  external pressure =        0.02 kB  Pullay stress =        0.00 kB


 VOLUME and BASIS-vectors are now :
 -----------------------------------------------------------------------------
  energy-cutoff  :      500.00
  volume of cell :     5383.15
      direct lattice vectors                 reciprocal lattice vectors
    12.505406831  0.000000000  0.000000000     0.079965411  0.000000000  0.000000000
     0.000000000 15.315932881  0.000000000     0.000000000  0.065291485  0.000000000
     0.000000000  0.000000000 28.105769807     0.000000000  0.000000000  0.035579883

  length of vectors
    12.505406831 15.315932881 28.105769807     0.079965411  0.065291485  0.035579883


 FORCES acting on ions:
    Electron-Ion                     Ewald-Force                    Non-Local-Force
 -----------------------------------------------------------------------------------------------
   -.412E-05 -.249E-04 0.238E+03   0.103E-15 -.409E-16 -.266E+03   0.950E-19 -.286E-18 0.281E+02
   -.473E-04 -.494E-04 -.206E+03   0.264E-16 0.304E-16 0.266E+03   -.342E-20 0.288E-18 -.597E+02
 -----------------------------------------------------------------------------------------------
   -.491E-04 -.735E-04 0.317E+02   0.129E-15 -.105E-16 0.000E+00   0.915E-19 0.289E-20 -.316E+02
 
 
 POSITION                                       TOTAL-FORCE (eV/Angst)
 -----------------------------------------------------------------------------------
      6.25000      7.65000     14.00000         0.000000      0.000000     -0.262318
      6.25000      7.65000     15.14000        -0.000000     -0.000000      0.262318
 -----------------------------------------------------------------------------------
    total drift:                               -0.000049     -0.000073      0.047256


--------------------------------------------------------------------------------------------------------



  FREE ENERGIE OF THE ION-ELECTRON SYSTEM (eV)
  ---------------------------------------------------
  free  energy   TOTEN  =       -12.06677318 eV

  energy  without entropy=      -12.06677318  energy(sigma->0) =      -12.06677318
 


--------------------------------------------------------------------------------------------------------


 BEEFens 2000 ensemble energies
             -0.103751877499868E+02
             -0.257390284293834E+00
             -0.227186173132669E+01
              0.726131626769248E+01
             -0.360287529697622E+01
             -0.283730638893479E+01
             -0.723700188890999E+01
             -0.156659316266251E+02
             -0.644262142804849E+01
             -0.698371232569299E+01
             -0.572052363149736E+01
              0.465655497626651E+00
              0.357001348228764E+00
              0.130635925319332E+00
              0.562523981649683E+00
              0.777696132164809E+01
             -0.360449542928985E+01
             -0.246478380580531E+01
              0.361533247271601E+01
             -0.184058208784131E+02
              0.906544555504003E+01
             -0.369621529906429E+01
             -0.102981132240519E+01
             -0.170719113084496E+01
             -0.172064753502255E+00
             -0.107663668028096E+01
              0.148648718876220E+02
             -0.298418217772753E+01
             -0.142676308075445E+01
             -0.888918284136430E+01
              0.124211036571234E+02
             -0.163949630605701E+01
             -0.680475535060445E+01
              0.337423039319117E+01
             -0.488584668543339E+00
              0.396647190564805E+01
             -0.218320407163766E+00
              0.559159592294385E+00
              0.547297427649770E+01
             -0.170041401150055E+02
              0.924608723137366E+01
              0.185854245488422E+01
             -0.127927823392260E+01
             -0.517102016393714E+01
              0.203308147488978E+01
             -0.250927568675509E+01
              0.791835687025878E+01
              0.597570164563109E+01
             -0.398982390753896E+01
             -0.506069018125673E+01
             -0.500250805315891E+01
             -0.603174916787567E+01
              0.312368243900424E+01
             -0.860667516817095E+01
              0.234816289322706E+01
              0.995572504316831E+01
              0.115786719494417E+02
              0.554220410276280E+01
              0.296324148640230E+01
              0.493176016893145E+01
              0.150892531734286E+02
              0.339307547992779E+01
             -0.923226329151004E+01
             -0.204828822038462E+01
             -0.468993926028057E+01
              0.104146841326281E+02
             -0.126238517164721E+02
             -0.101895373161365E+02
             -0.503531425632280E+01
             -0.213042209864662E+01
             -0.702437271302749E+01
              0.459453567917451E+01
              0.220387147968171E+01
              0.220498418805283E+01
             -0.647799455938846E+01
             -0.582090894975355E+01
             -0.927940901219871E+01
              0.591158098486689E+01
             -0.529112493960067E+01
              0.491490172889830E+01
             -0.115370793353615E+01
             -0.513439197005815E+01
             -0.901190850523001E+01
             -0.262300594701340E+01
             -0.250621217776873E+01
             -0.254701422528882E+01
              0.661864321024243E+01
              0.120851785328907E+02
             -0.701306803527109E+01
             -0.132427214751645E+02
             -0.323442741406699E+01
              0.184255563919270E+02
             -0.931944695963507E+01
              0.533019380054867E+01
             -0.154638727527575E+01
             -0.104362794558714E+02
              0.462792353221218E+01
              0.561328629193307E+01
             -0.246941764405104E+01
              0.523242081997411E+01
             -0.460865806930389E+01
             -0.915309124264586E+01
              0.158342966186560E+02
              0.741701336810198E+01
              0.430869986487232E+01
              0.193741914611945E+01
              0.315541214033287E+01
              0.137197051569540E+02
             -0.447932783732312E+01
              0.592046729002483E+00
             -0.233313601830878E+02
              0.338217508464034E+01
             -0.113277981731511E+02
              0.213897751484451E+01
              0.346171990285790E+01
             -0.570449748417667E+01
             -0.873051482589517E+01
              0.785131348622599E+00
             -0.503954458869161E+01
              0.660463685497123E+01
             -0.760284920268759E+01
             -0.881106780784393E+00
             -0.628525747522252E+01
             -0.420392928569250E+00
              0.232520048005490E+00
              0.312685368635195E+01
              0.823720106133692E-01
             -0.121056960967201E+01
              0.104908720334165E+02
              0.151523082922517E+02
              0.806374582766424E+01
              0.119470884666559E+02
             -0.232043920378316E+01
              0.155136694908760E+01
              0.868075348368686E+01
             -0.197466608333293E+00
             -0.125124723087643E+02
             -0.696026915903638E+01
             -0.820502724623120E+01
             -0.491430173342146E+01
              0.445460837973337E+01
             -0.198614341690713E+02
             -0.225159654786482E+01
              0.725806928074586E+01
             -0.681623444958471E+01
             -0.543242170130196E+01
              0.892203520554760E+01
              0.792550947845051E+01
             -0.501012337624097E+01
              0.422021018246926E+01
             -0.423529461767365E+01
              0.625978013356526E+01
              0.129461835199010E+01
              0.241409979770732E+01
             -0.140050991921560E+02
             -0.804088578320569E+01
             -0.160130044950657E+01
             -0.402942148584150E+00
             -0.666833009246807E+01
              0.181246069673196E+02
             -0.246919409085649E+01
             -0.505433401804370E+01
              0.669282861154761E+01
             -0.769242010636360E+01
             -0.599172179479640E+01
              0.513818480301072E+01
              0.179066396172255E+01
              0.172895554182693E+01
              0.214445729547471E+01
             -0.187624125463835E+01
              0.230126329471076E+01
              0.978262582449038E+01
             -0.485332663740586E+01
              0.329620683982502E+01
              0.149138037123538E+02
              0.521359619502148E+01
             -0.717803049166690E+00
             -0.307217284386856E+01
              0.253359557241754E+02
             -0.365452686951011E+01
              0.636198096949427E+01
              0.447989579577293E+01
              0.524371601738763E+01
              0.154244337506038E+02
              0.795196666571825E+01
             -0.729812844170519E+00
              0.375024100318169E+01
              0.836967080841086E+01
              0.625280396745132E+01
             -0.970953002801227E+01
              0.156209198884376E+02
             -0.143417545671553E+02
             -0.241940538894307E+01
              0.946465090330435E+01
              0.182963351777001E+01
              0.729832546067641E+00
              0.508415987434927E+01
              0.322385642571292E+01
              0.546962835529061E+01
             -0.103582094772196E+02
              0.613063214334247E+00
             -0.409472138674909E+01
             -0.106522995607306E+01
             -0.186313715226902E+00
             -0.183845662935102E+01
             -0.939178992715561E+00
              0.139880251658667E+02
             -0.933066582216011E+00
             -0.490181881045782E+01
             -0.424409073042808E+00
              0.227652242063440E+01
             -0.101863918386008E+02
             -0.805006718588881E+01
             -0.568696157084863E+01
             -0.103617015954569E+02
             -0.297071625128189E+01
             -0.686219353078607E+01
              0.295779441785356E+01
             -0.820715622720130E-01
             -0.200248604613502E+01
             -0.143840956545835E+01
              0.107756321894655E+01
             -0.337418999159759E+01
              0.107504671273019E+02
             -0.140331226088338E+02
             -0.204833478902646E+01
             -0.263728164961276E+01
              0.282973556090338E+01
              0.316555032560225E+01
             -0.821952330656904E+01
             -0.241901606505229E+01
              0.741618470577199E+01
             -0.390734875208128E+01
              0.228268330713549E+01
              0.606694846378964E+01
             -0.106662890193661E+00
              0.191069280046127E+02
             -0.259462730792474E+01
             -0.601511624110459E+01
              0.260577750549281E+00
             -0.453470613322531E+01
              0.856452043968276E+01
             -0.725970957990893E+01
              0.218785418294740E+01
              0.883701672019059E+01
             -0.230071254864613E+01
              0.195848763411147E+02
              0.209222624258969E+02
             -0.117519016497194E+02
              0.948789098247311E+01
              0.331356958173393E+01
             -0.894800666631700E+01
              0.341040170489614E+01
              0.651980674951834E+01
              0.707422886540979E+01
              0.733092470227326E+00
              0.287696471389124E+01
              0.119819706058896E+02
             -0.385262326978674E+01
              0.182669029803965E+01
              0.114599206283794E+02
             -0.599565152525808E+01
             -0.329499275699829E+01
              0.935397690046817E+01
              0.507619830350185E+01
              0.128473115034726E+02
              0.502252475553976E+01
              0.183692047024878E+01
              0.411269085388403E+01
              0.691346982303036E+01
             -0.802589785446430E+01
              0.790451636303828E+00
              0.346205349316288E+01
              0.152813874013307E+01
              0.385574851223038E+01
             -0.101094092046221E+02
              0.568025903589992E+01
             -0.722317945136376E+01
             -0.523603939550329E+01
              0.287135898865490E+01
             -0.207878125620892E+01
              0.953221703725661E+01
             -0.337579730547270E+01
              0.452423660938259E+01
              0.514919984855382E+01
              0.131373233629547E+02
              0.896223277416388E+01
              0.841821217782997E+01
             -0.134360046196902E+01
             -0.135157738313040E+01
             -0.511904052024622E+01
              0.131383972970182E+02
              0.135912131159481E+02
              0.615746038731120E+01
             -0.418519434496070E+01
              0.828587402380059E+01
             -0.100161395722863E+01
              0.339178802376063E+01
              0.110828583763518E+02
             -0.351384726693524E+00
             -0.183582019510319E+01
             -0.427175164741485E+01
             -0.946264184928690E+01
              0.159333717257980E+02
              0.774378101620705E+01
             -0.102160857696326E+02
             -0.295891811819391E+01
              0.414301209768536E+01
             -0.200918149463460E+01
              0.104303630452026E+02
              0.269359162861348E+01
              0.132483611269999E+02
              0.445437363189655E+01
             -0.420432853297342E+01
              0.339677620329023E+01
             -0.104465222035236E+01
             -0.458305200317574E+01
              0.275651026578510E+01
              0.322938429058152E+01
              0.147766065275660E+02
              0.126716551245758E+02
              0.932912852640398E+01
              0.117749157634155E+02
              0.125366485151535E+01
             -0.455971134725799E+01
              0.225694967122938E+01
             -0.574846335679405E+01
             -0.876692682204456E+01
             -0.949675241656011E+01
             -0.498491015765098E+01
             -0.181193502333727E+02
             -0.562568446103591E+01
             -0.140848551434673E+02
              0.310657084692116E+01
             -0.767664420035371E+01
              0.774728815242102E+01
             -0.157413464546711E+02
             -0.507084055671611E+01
              0.752015520572233E+01
              0.357357852583518E+01
             -0.143704603858527E+02
              0.939523408516500E+01
             -0.461280766799860E+01
              0.895518510231728E+01
             -0.476189799141996E+01
             -0.126575801363918E+02
              0.270996589535469E+01
             -0.104762146412531E+02
             -0.150592380027400E+01
             -0.639091567021546E-01
              0.705702050167297E+01
              0.207983934141636E+02
             -0.742812267250768E+01
             -0.622089223031366E+01
             -0.902502128204830E+00
             -0.164510320744223E+01
             -0.132677688338167E+02
             -0.974537835868547E+01
              0.868235224371381E+01
             -0.359878452230647E+01
              0.312324726618247E+01
             -0.809471431593106E+01
             -0.224776070612712E+01
             -0.706716285263396E+01
              0.828268225437760E+01
              0.261008400780716E+01
             -0.406031127106601E+01
             -0.240457165530944E+01
              0.180906214925532E+01
             -0.130529841654977E+01
              0.662444821498107E+01
             -0.442461147276860E+01
              0.115596168975017E+01
              0.544446507332177E+01
              0.246779841981717E+01
             -0.341398059608330E+01
              0.258431760796600E+02
              0.936134021963393E+01
              0.122277443351608E+01
              0.140516667738811E+01
             -0.100105443079340E+02
              0.528557492400564E+01
             -0.123575428203493E+02
             -0.517600923189669E+01
             -0.969048615646833E+01
             -0.307820620663568E+01
              0.966207170416740E+01
             -0.944619315725318E+01
              0.356083513213173E+01
             -0.658349278784286E+00
              0.386336444173406E+00
             -0.577277697502936E+01
             -0.711577849007785E+01
             -0.826389250610262E+00
             -0.634703869887634E+01
             -0.385183018573288E+01
             -0.651745908402474E+01
             -0.112828724834863E+01
             -0.538250974186310E+01
             -0.819450993218807E+01
              0.388874319075647E+01
             -0.255910004215308E+01
              0.350949224145968E+01
              0.171038639579595E+01
             -0.122353538989602E+02
             -0.876523064855932E+01
             -0.761416192369081E+01
              0.567053928426094E+01
             -0.579509329978819E+00
             -0.103785484430256E+02
              0.940517685410121E+01
             -0.708587886645832E+01
              0.915680533289102E+01
             -0.491700441164553E+01
             -0.796685000935499E+01
              0.452376062663227E+01
             -0.117362642709537E+02
             -0.572605375908145E+01
              0.105051306778727E+02
              0.353510654092207E+01
[...]
  345          fftbrc_mpi                            8.607914                       1133   4
  346            fftbas_plan_mpi                       8.603856                     1133   5
  347              dfftw_execute                         1.376311                   3399   6
  348              map_forward                           2.777727                   1138   6
  349                map_gather                            0.160730                  574   7
  350                m_alltoallv_z                         1.976946                  574   7
  351                map_scatter                           0.624059                  574   7
  352              map_backward                          3.671601                   1128   6
  353                map_gather                            0.501127                  564   7
  354                m_alltoallv_z                         2.945569                  564   7
  355                map_scatter                           0.210026                  564   7
  356        ggaall_grid                           1.704677                          101   3
  357        m_sumb_d                              0.161201                          510   3
  358        pothar                                0.006721                            5   3
  359          m_sumb_d                              0.002558                          5   4
  360        m_bcast_d                             0.037341                            5   3
  361      potlok_metagga                        0.000005                              5   2
  362      set_dd_magatom                        0.000003                              3   2
  363      set_dd_paw                            0.036130                              5   2
  364        set_rsgf_all                          0.000008                            5   3
  365        m_sumb_d                              0.035599                           35   3
  366      wavpre_noio                           0.011998                              2   2
  367        stufak                                0.002452                            2   3
  368      eddiag                                0.265281                              2   2
  369        overl                                 0.000019                            2   3
  370        redis_proj                            0.004373                            6   3
  371          m_alltoall_d                          0.004305                          6   4
  372        fftwav_mpi                            0.106618                            2   3
  373          fft3d_mpi                             0.085409                          2   4
  374            fftbrc_mpi                            0.064341                        2   5
  375              fftbas_plan_mpi                       0.064331                      2   6
  376                dfftw_execute                         0.028039                    6   7
  377                map_forward                           0.034715                    4   7
  378                  map_gather                            0.006470                  2   8
  379                  m_alltoallv_z                         0.003984                  2   8
  380                  map_scatter                           0.008585                  2   8
  381        hamilt_local                          0.079776                            2   3
  382          vhamil                                0.027312                          2   4
  383          kinhamil                              0.052434                          2   4
  384            fftext_mpi                            0.051619                        2   5
  385              fft3d_mpi                             0.049983                      2   6
  386                fftbrc_mpi                            0.033672                    2   7
  387                  fftbas_plan_mpi                       0.033666                  2   8
  388                    dfftw_execute                         0.020641                6   9
  389                    map_backward                          0.011595                4   9
  390                      map_gather                            0.004793              2  10
  391                      m_alltoallv_z                         0.003008              2  10
  392                      map_scatter                           0.003735              2  10
  393        redis_pw                              0.028796                            6   3
  394          m_alltoall_d                          0.024383                          6   4
  395        orth1                                 0.002585                            2   3
  396        m_sumb_d                              0.001885                            2   3
  397        shift_bands_between_low_high          0.000002                            2   3
  398        lincom                                0.005330                            2   3
  399      set_charge                            1.349594                              2   2
  400        soft_charge                           0.156380                            2   3
  401          fftwav_mpi                            0.032202                          2   4
  402            fft3d_mpi                             0.027378                        2   5
  403              fftbrc_mpi                            0.022299                      2   6
  404                fftbas_plan_mpi                       0.022295                    2   7
  405                  dfftw_execute                         0.012821                  6   8
  406                  map_forward                           0.008220                  4   8
  407                    map_gather                            0.001558                2   9
  408                    m_alltoallv_z                         0.001143                2   9
  409                    map_scatter                           0.002028                2   9
  410          pw_charge                             0.004206                          2   4
  411          m_sumb_d                              0.059509                          2   4
  412          fft_gq                                0.018828                          2   4
  413            fft3d_mpi                             0.017535                        2   5
  414              fftbrc_mpi                            0.014820                      2   6
  415                fftbas_plan_mpi                       0.014815                    2   7
  416                  dfftw_execute                         0.005241                  6   8
  417                  map_backward                          0.008517                  4   8
  418                    map_gather                            0.004467                4   9
  419                    m_alltoallv_z                         0.003727                4   9
  420                    map_scatter                           0.000271                4   9
  421        m_sumb_d                              0.180282                            2   3
  422        depsum                                0.041985                            2   3
  423          m_sumb_d                              0.041945                          2   4
  424        augmentation_charge                   0.026949                            2   3
  425          m_sumb_d                              0.000150                          2   4
  426          fft3d_mpi                             0.024274                          2   4
  427            fftbrc_mpi                            0.023936                        2   5
  428              fftbas_plan_mpi                       0.023930                      2   6
  429                dfftw_execute                         0.002405                    6   7
  430                map_backward                          0.020247                    4   7
  431                  map_gather                            0.002197                  2   8
  432                  m_alltoallv_z                         0.017241                  2   8
  433                  map_scatter                           0.000759                  2   8
 
 Flat profile
 ============
 
             routine name                   CPU           calls
 ---------------------------------------------------------------
 potlok                                111.289656          70
 set_charge                             29.085453          67
 m_alltoallv_z                          25.616480        6693
 total_time                             14.634023           1
 dfftw_execute                          11.201387       19668
 m_sumb_d                               10.043439        3465
 ggaall_grid                             6.992679         169
 map_scatter                             6.065370        6693
 fft3d_mpi                               4.616231        6556
 force_and_stress                        4.538898           3
 fftbas_plan_mpi                         4.446962        6556
 map_gather                              4.321978        6693
 fftwav_mpi                              1.947921         240
 m_alltoall_d                            1.888242        1271
 edwav                                   1.811716          64
 map_forward                             1.463239        6644
 lapack                                  1.184824          19
 eccp                                    0.890427         133
 vhamil                                  0.747633          56
 m_bcast_d                               0.721564         140
 soft_charge                             0.682513          67
 lincom                                  0.434369         200
 m_bcast_z                               0.387693          97
 orth1                                   0.271142         156
 redis_pw                                0.262676         371
 elmin_all                               0.202232           3
 eddav                                   0.193978           5
 w1_dscal                                0.184078          32
 pw_charge                               0.144836          67
 fftext_mpi                              0.118600          88
 augmentation_charge                     0.088099          67
 map_backward                            0.085197        6468
 choleski                                0.058865          67
 rpro_isp                                0.057395          39
 eddiag                                  0.053469          37
 pothar                                  0.053275          70
 fft_gq                                  0.047793          67
 inisym                                  0.042944           1
 w1_copy                                 0.037332          57
 ggemm                                   0.032788          19
 kinhamil                                0.027751          56
 setdij_                                 0.025091         149
 rspher_all                              0.024145          40
 fftbrc_mpi                              0.022973        6556
 redis_proj                              0.014168         900
 set_dd_paw                              0.011685          73
 apply_precond                           0.010710          14
 strelo                                  0.010364           3
 wavpre_noio                             0.009546           2
 strehar                                 0.009456           3
 forloc                                  0.008508           3
 orthch                                  0.008151          67
 forhar                                  0.008087           3
 racc0                                   0.008056          51
 brgrid                                  0.007594           1
 rpro1                                   0.007267          46
 rpromu_gemm                             0.006302          78
 densta                                  0.006128          78
 fewald                                  0.005166           3
 overl                                   0.005159         201
 stufak                                  0.005012           3
 rpromu                                  0.003249          39
 setup_precond                           0.002341           5
 strkin                                  0.001927           3
 rsp                                     0.001880           3
 strnlr                                  0.001440           3
 depsum                                  0.001434          67
 newband                                 0.000803          24
 redis_pw_all                            0.000749          64
 hamilt_local                            0.000726          37
 overl1                                  0.000504          19
 hamiltmu                                0.000452          19
 fornlr                                  0.000366           3
 redis_pw_over_bands                     0.000271          69
 crpa_reader                             0.000271           1
 raccmu_                                 0.000270          19
 rcp                                     0.000169           3
 set_rsgf_all                            0.000133          73
 fordep                                  0.000126           3
 potlok_metagga                          0.000125          70
 w1_projall                              0.000067          14
 proall                                  0.000054           3
 set_dd_magatom                          0.000045           6
 phaser                                  0.000043          76
 rotate_active_occupied_orbital          0.000038           3
 posmap                                  0.000024           2
 truncate_high_frequency_w1              0.000021          24
 vectorpot                               0.000018           1
 shift_bands_between_low_high            0.000006           5
 ---------------------------------------------------------------
  summed up times    247.206264972687     
 
 Accumulative profile
 ====================
 
             routine name                   CPU           calls
 ---------------------------------------------------------------
 total_time                            247.206265           1
 elmin_all                             201.702254           3
 potlok                                164.209790          70
 fft3d_mpi                              57.839817        6556
 fftbrc_mpi                             53.223586        6556
 fftbas_plan_mpi                        53.200613        6556
 set_charge                             40.052857          67
 m_alltoallv_z                          25.616480        6693
 map_forward                            19.964899        6644
 map_backward                           17.587366        6468
 dfftw_execute                          11.201387       19668
 edwav                                  10.855148          64
 m_sumb_d                               10.043439        3465
 fftwav_mpi                              9.816993         240
 force_and_stress                        8.409757           3
 ggaall_grid                             6.992679         169
 map_scatter                             6.065370        6693
 eddav                                   4.622936           5
 soft_charge                             4.437680          67
 map_gather                              4.321978        6693
 fftext_mpi                              2.477661          88
 eddiag                                  2.413354          37
 rpro_isp                                1.919446          39
 m_alltoall_d                            1.888242        1271
 kinhamil                                1.503388          56
 redis_pw                                1.493667         371
 hamilt_local                            1.472985          37
 depsum                                  1.438461          67
 strnlr                                  1.349937           3
 lapack                                  1.184824          19
 eccp                                    0.903533         133
 hamiltmu                                0.789780          19
 vhamil                                  0.747633          56
 m_bcast_d                               0.721564         140
 redis_proj                              0.671418         900
 fft_gq                                  0.627344          67
 set_dd_paw                              0.622780          73
 augmentation_charge                     0.577396          67
 fornlr                                  0.479351           3
 orthch                                  0.476148          67
 lincom                                  0.434369         200
 m_bcast_z                               0.387693          97
 newband                                 0.347652          24
 orth1                                   0.271142         156
 redis_pw_over_bands                     0.246966          69
 redis_pw_all                            0.246695          64
 setdij_                                 0.206468         149
 proall                                  0.203475           3
 w1_dscal                                0.184078          32
 pw_charge                               0.144836          67
 pothar                                  0.111377          70
 strkin                                  0.090519           3
 densta                                  0.069317          78
 choleski                                0.058865          67
 inisym                                  0.042968           1
 w1_copy                                 0.037332          57
 ggemm                                   0.032788          19
 rspher_all                              0.024145          40
 racc0                                   0.023497          51
 rpromu                                  0.013515          39
 rpro1                                   0.012978          46
 wavpre_noio                             0.011998           2
 strelo                                  0.011832           3
 forhar                                  0.010938           3
 apply_precond                           0.010710          14
 raccmu_                                 0.010567          19
 strehar                                 0.010028           3
 forloc                                  0.009291           3
 fewald                                  0.008341           3
 brgrid                                  0.007594           1
 rpromu_gemm                             0.006302          78
 overl                                   0.005159         201
 stufak                                  0.005012           3
 fordep                                  0.004612           3
 w1_projall                              0.003025          14
 setup_precond                           0.002595           5
 rsp                                     0.001880           3
 overl1                                  0.000504          19
 crpa_reader                             0.000271           1
 rcp                                     0.000169           3
 set_rsgf_all                            0.000133          73
 potlok_metagga                          0.000125          70
 set_dd_magatom                          0.000045           6
 phaser                                  0.000043          76
 rotate_active_occupied_orbital          0.000038           3
 posmap                                  0.000024           2
 truncate_high_frequency_w1              0.000021          24
 vectorpot                               0.000018           1
 shift_bands_between_low_high            0.000006           5
 ---------------------------------------------------------------
 
Profiling took   0.139739  0.056020  0.015349  0.014359 seconds
Profiling took   0.182687 seconds
