 vasp.6.3.2 27Jun22 (build Jan 03 2024 23:05:41) complex                        
  
 executed on           IFC15_impi date 2024.03.20  21:23:14
 running  256 mpi-ranks, with    1 threads/rank
 distrk:  each k-point on  256 cores,    1 groups
 distr:  one band on NCORE=   8 cores,   32 groups


--------------------------------------------------------------------------------------------------------


 INCAR:
   ENCUT = 500.000000
   SIGMA = 0.010000
   EDIFF = 1.00e-05
   ALGO = A
   ISMEAR = 0
   NELM = 200
   NSW = 500
   NCORE = 8
   LCHARG = .FALSE.
   LWAVE = .FALSE.
   LREAL = Auto
   NCORE = 8
   IBRION = 2
   EDIFFG = -0.02
   GGA = BF
   LUSE_VDW = .TRUE.
   ZAB_VDW = -1.8867
   LBEEFENS = .TRUE.
   DIPOL = 0.5 0.5 0.5
   IDIPOL = 3
   LDIPOL = .TRUE.

 POTCAR:    PAW_PBE Au 04Oct2007                  
 -----------------------------------------------------------------------------
|                                                                             |
|               ----> ADVICE to this user running VASP <----                  |
|                                                                             |
|     You have switched on vdW-DFT.                                           |
|     This routine was written and supplied by Jiri Klimes. We recommend      |
|     that you carefully read and cite the following publications:            |
|       J. Klimes, D.R. Bowler, A. Michelides                                 |
|          J. Phys.: Cond Matt. 22 022201 (2010)                              |
|       J. Klimes, D.R. Bowler, A. Michelides                                 |
|          Phys. Rev. B. 83, 195131 (2011)                                    |
|     and references therein.                                                 |
|                                                                             |
 -----------------------------------------------------------------------------

 POTCAR:    PAW_PBE Au 04Oct2007                  
   SHA256 =  d0044ae04e2bdce24051b198fc5c053d722a5bc6fe3c3b100514a13fc5d2db88 Au/POTCAR             
   COPYR  = (c) Copyright 04Oct2007 Georg Kresse                                                    
   COPYR  = This file is part of the software VASP. Any use, copying, and all other rights are regul
   COPYR  = If you do not have a valid VASP license, you may not use, copy or distribute this file. 
   VRHFIN =Au: s1d10                                                                                
   LEXCH  = PE                                                                                      
   EATOM  =   926.0867 eV,   68.0654 Ry                                                             
                                                                                                    
   TITEL  = PAW_PBE Au 04Oct2007                                                                    
   LULTRA =        F    use ultrasoft PP ?                                                          
   IUNSCR =        1    unscreen: 0-lin 1-nonlin 2-no                                               
   RPACOR =    2.330    partial core radius                                                         
   POMASS =  196.966; ZVAL   =   11.000    mass and valenz                                          
   RCORE  =    2.500    outmost cutoff radius                                                       
   RWIGS  =    2.840; RWIGS  =    1.503    wigner-seitz radius (au A)                               
   ENMAX  =  229.943; ENMIN  =  172.457 eV                                                          
   ICORE  =        3    local potential                                                             
   LCOR   =        T    correct aug charges                                                         
   LPAW   =        T    paw PP                                                                      
   EAUG   =  356.670                                                                                
   DEXC   =    0.000                                                                                
   RMAX   =    2.562    core radius for proj-oper                                                   
   RAUG   =    1.300    factor for augmentation sphere                                              
   RDEP   =    2.598    radius for radial grids                                                     
   RDEPT  =    2.193    core radius for aug-charge                                                  
                                                                                                    
   Atomic configuration                                                                             
   16 entries                                                                                       
     n  l   j            E        occ.                                                              
     1  0  0.50    -80748.5001   2.0000                                                             
     2  0  0.50    -14244.7466   2.0000                                                             
     2  1  1.50    -12310.9591   6.0000                                                             
     3  0  0.50     -3362.1768   2.0000                                                             
     3  1  1.50     -2801.5463   6.0000                                                             
     3  2  2.50     -2203.8206  10.0000                                                             
     4  0  0.50      -729.8168   2.0000                                                             
     4  1  1.50      -546.0527   6.0000                                                             
     4  2  2.50      -325.7302  10.0000                                                             
     4  3  3.50       -81.1472  14.0000                                                             
     5  0  0.50      -108.3201   2.0000                                                             
     5  1  1.50       -59.7479   6.0000                                                             
     5  2  2.50        -6.8783  10.0000                                                             
     6  0  0.50        -5.7602   1.0000                                                             
     6  1  1.50        -6.8029   0.0000                                                             
     5  3  2.50        -1.3606   0.0000                                                             
   Description                                                                                      
     l       E           TYP  RCUT    TYP  RCUT                                                     
     2     -6.8782861     23  2.500                                                                 
     2     -8.2388687     23  2.500                                                                 
     0     -5.7601759     23  2.500                                                                 
     0     -0.8493231     23  2.500                                                                 
     1     -2.7211652     23  2.500                                                                 
     1     27.2116520     23  2.500                                                                 
     3     -1.3605826     23  2.500                                                                 
  local pseudopotential read in
  partial core-charges read in
  partial kinetic energy density read in
  atomic valenz-charges read in
  non local Contribution for L=           2  read in
    real space projection operators read in
  non local Contribution for L=           2  read in
    real space projection operators read in
  non local Contribution for L=           0  read in
    real space projection operators read in
  non local Contribution for L=           0  read in
    real space projection operators read in
  non local Contribution for L=           1  read in
    real space projection operators read in
  non local Contribution for L=           1  read in
    real space projection operators read in
    PAW grid and wavefunctions read in
 
   number of l-projection  operators is LMAX  =           6
   number of lm-projection operators is LMMAX =          18
 
 Optimization of the real space projectors (new method)

 maximal supplied QI-value         = 15.12
 optimisation between [QCUT,QGAM] = [ 11.34, 22.83] = [ 36.00,145.93] Ry 
 Optimized for a Real-space Cutoff    1.39 Angstroem

   l    n(q)    QCUT    max X(q) W(low)/X(q) W(high)/X(q)  e(spline) 
   2      9    11.338    60.898    0.39E-03    0.42E-03    0.21E-06
   2      9    11.338    58.894    0.40E-03    0.42E-03    0.22E-06
   0      9    11.338   109.617    0.13E-03    0.20E-04    0.13E-06
   0      9    11.338    75.026    0.13E-03    0.20E-04    0.13E-06
   1      9    11.338    16.344    0.33E-04    0.24E-03    0.18E-06
   1      9    11.338    10.160    0.26E-04    0.19E-03    0.15E-06
 -----------------------------------------------------------------------------
|                                                                             |
|               ----> ADVICE to this user running VASP <----                  |
|                                                                             |
|     You enforced a specific xc type in the INCAR file but a different       |
|     type was found in the POTCAR file.                                      |
|     I HOPE YOU KNOW WHAT YOU ARE DOING!                                     |
|                                                                             |
 -----------------------------------------------------------------------------

  PAW_PBE Au 04Oct2007                  :
 energy of atom  1       EATOM= -926.0867
 kinetic energy error for atom=    0.0042 (will be added to EATOM!!)
 
 
 POSCAR: Au
  positions in cartesian coordinates
  No initial velocities read in
 exchange correlation table for  LEXCH =       17
   RHO(1)=    0.500       N(1)  =     2000
   RHO(2)=  100.500       N(2)  =     4000

 VTST: version 4.1, (05/19/21)

 CHAIN: initializing optimizer
 
 OPT: Using VASP Conjugate-Gradient optimizer
 CHAIN: Read ICHAIN            0
 
 POSCAR: Au
  positions in cartesian coordinates
  No initial velocities read in
 


--------------------------------------------------------------------------------------------------------


 ion  position               nearest neighbor table
   1  0.000  0.000  0.393-   7 2.88  12 2.88  31 2.88  32 2.88   2 2.88   6 2.88  67 2.88  42 2.88
                            37 2.88
   2  0.167  0.000  0.393-   7 2.88   8 2.88  32 2.88   1 2.88  37 2.88  33 2.88  68 2.88  38 2.88
                             3 2.88
   3  0.333  0.000  0.393-   9 2.88  33 2.88  34 2.88   4 2.88  39 2.88   8 2.88  69 2.88  38 2.88
                             2 2.88
   4  0.500  0.000  0.393-   9 2.88  10 2.88  34 2.88  35 2.88   3 2.88   5 2.88  70 2.88  40 2.88
                            39 2.88
   5  0.667  0.000  0.393-  10 2.88  11 2.88  35 2.88   4 2.88  40 2.88  36 2.88  71 2.88  41 2.88
                             6 2.88
   6  0.833  0.000  0.393-  12 2.88  31 2.88  36 2.88   1 2.88  42 2.88  11 2.88  72 2.88  41 2.88
                             5 2.88
   7  0.000  0.167  0.393-   1 2.88   2 2.88   8 2.88  12 2.88  37 2.88  18 2.88  43 2.88  48 2.88
                            13 2.88
   8  0.167  0.167  0.393-   2 2.88   7 2.88  38 2.88  43 2.88   3 2.88  13 2.88  44 2.88  14 2.88
                             9 2.88
   9  0.333  0.167  0.393-   3 2.88   4 2.88  10 2.88  39 2.88  45 2.88  44 2.88  15 2.88  14 2.88
                             8 2.88
  10  0.500  0.167  0.393-   4 2.88   5 2.88   9 2.88  11 2.88  40 2.88  15 2.88  45 2.88  46 2.88
                            16 2.88
  11  0.667  0.167  0.393-   5 2.88  10 2.88  41 2.88  46 2.88   6 2.88  16 2.88  47 2.88  17 2.88
                            12 2.88
  12  0.833  0.167  0.393-   1 2.88   6 2.88   7 2.88  42 2.88  48 2.88  47 2.88  18 2.88  17 2.88
                            11 2.88
  13  0.000  0.333  0.393-  19 2.88  24 2.88  14 2.88  18 2.88  49 2.88   8 2.88  43 2.88  54 2.88
                             7 2.88
  14  0.167  0.333  0.393-  19 2.88  20 2.88  13 2.88  49 2.88  50 2.88  44 2.88   8 2.88   9 2.88
                            15 2.88
  15  0.333  0.333  0.393-  51 2.88  21 2.88  16 2.88  10 2.88  20 2.88  45 2.88  50 2.88   9 2.88
                            14 2.88
  16  0.500  0.333  0.393-  21 2.88  22 2.88  15 2.88  17 2.88  52 2.88  11 2.88  46 2.88  51 2.88
                            10 2.88
  17  0.667  0.333  0.393-  22 2.88  23 2.88  16 2.88  52 2.88  53 2.88  47 2.88  11 2.88  12 2.88
                            18 2.88
  18  0.833  0.333  0.393-  54 2.88  24 2.88  13 2.88   7 2.88  23 2.88  48 2.88  53 2.88  12 2.88
                            17 2.88
  19  0.000  0.500  0.393-  13 2.88  14 2.88  25 2.88  30 2.88  20 2.88  24 2.88  49 2.88  55 2.88
                            60 2.88
  20  0.167  0.500  0.393-  14 2.88  25 2.88  26 2.88  19 2.88  55 2.88  15 2.88  50 2.88  56 2.88
                            21 2.88
  21  0.333  0.500  0.393-  15 2.88  16 2.88  27 2.88  22 2.88  57 2.88  26 2.88  51 2.88  56 2.88
                            20 2.88
  22  0.500  0.500  0.393-  16 2.88  17 2.88  27 2.88  28 2.88  21 2.88  23 2.88  52 2.88  57 2.88
                            58 2.88
  23  0.667  0.500  0.393-  17 2.88  28 2.88  29 2.88  22 2.88  58 2.88  18 2.88  53 2.88  59 2.88
                            24 2.88
  24  0.833  0.500  0.393-  13 2.88  18 2.88  30 2.88  19 2.88  60 2.88  29 2.88  54 2.88  59 2.88
                            23 2.88
  25  0.000  0.667  0.393-  19 2.88  20 2.88  26 2.88  30 2.88  55 2.88  36 2.88  61 2.88  66 2.88
                            31 2.88
  26  0.167  0.667  0.393-  20 2.88  25 2.88  56 2.88  61 2.88  21 2.88  31 2.88  62 2.88  32 2.88
                            27 2.88
  27  0.333  0.667  0.393-  21 2.88  22 2.88  28 2.88  57 2.88  63 2.88  62 2.88  33 2.88  32 2.88
                            26 2.88
  28  0.500  0.667  0.393-  22 2.88  23 2.88  27 2.88  29 2.88  58 2.88  33 2.88  63 2.88  64 2.88
                            34 2.88
  29  0.667  0.667  0.393-  23 2.88  28 2.88  59 2.88  64 2.88  24 2.88  34 2.88  65 2.88  35 2.88
                            30 2.88
  30  0.833  0.667  0.393-  19 2.88  24 2.88  25 2.88  60 2.88  66 2.88  65 2.88  36 2.88  35 2.88
                            29 2.88
  31  0.000  0.833  0.393-   1 2.88   6 2.88  32 2.88  36 2.88  67 2.88  26 2.88  61 2.88  72 2.88
                            25 2.88
  32  0.167  0.833  0.393-   1 2.88   2 2.88  31 2.88  67 2.88  68 2.88  62 2.88  26 2.88  27 2.88
                            33 2.88
  33  0.333  0.833  0.393-  69 2.88   3 2.88  34 2.88   2 2.88  28 2.88  63 2.88  68 2.88  27 2.88
                            32 2.88
  34  0.500  0.833  0.393-   3 2.88   4 2.88  33 2.88  35 2.88  70 2.88  29 2.88  64 2.88  69 2.88
                            28 2.88
  35  0.667  0.833  0.393-   4 2.88   5 2.88  34 2.88  70 2.88  71 2.88  65 2.88  29 2.88  30 2.88
                            36 2.88
  36  0.833  0.833  0.393-  72 2.88   6 2.88  31 2.88   5 2.88  25 2.88  66 2.88  71 2.88  30 2.88
                            35 2.88
  37  0.056  0.056  0.464-  43 2.88  38 2.88   2 2.88   7 2.88  48 2.88  68 2.88 104 2.88  73 2.88
                            74 2.88   1 2.88  67 2.88  42 2.88
  38  0.222  0.056  0.464-  43 2.88  44 2.88  37 2.88  39 2.88   8 2.88  74 2.88  69 2.88 105 2.88
                             2 2.88  75 2.88   3 2.88  68 2.88
  39  0.389  0.056  0.464-  44 2.88  45 2.88  38 2.88   9 2.88   3 2.88  75 2.88 106 2.88  76 2.88
                             4 2.88  70 2.88  69 2.88  40 2.88
  40  0.556  0.056  0.464-  46 2.88  41 2.88   5 2.88  10 2.88  45 2.88  71 2.88 107 2.88  76 2.88
                            77 2.88   4 2.88  70 2.88  39 2.88
  41  0.722  0.056  0.464-  46 2.88  47 2.88  40 2.88  42 2.88  11 2.88  77 2.88  72 2.88 108 2.88
                             5 2.88  78 2.88   6 2.88  71 2.88
  42  0.889  0.056  0.464-  47 2.88  48 2.88  41 2.88  12 2.88   6 2.88  78 2.88 103 2.88   1 2.88
                            73 2.88  72 2.88  67 2.88  37 2.88
  43  0.056  0.222  0.464-  37 2.88  38 2.88  49 2.88  44 2.88   8 2.88  74 2.88  54 2.88  13 2.88
                             7 2.88  79 2.88  80 2.88  48 2.88
  44  0.222  0.222  0.464-  38 2.88  39 2.88  49 2.88  50 2.88  43 2.88  45 2.88  75 2.88  80 2.88
                            14 2.88   9 2.88   8 2.88  81 2.88
  45  0.389  0.222  0.464-  39 2.88  50 2.88  51 2.88  44 2.88   9 2.88  76 2.88  81 2.88  40 2.88
                            15 2.88  10 2.88  82 2.88  46 2.88
  46  0.556  0.222  0.464-  40 2.88  41 2.88  52 2.88  47 2.88  11 2.88  77 2.88  51 2.88  16 2.88
                            10 2.88  82 2.88  83 2.88  45 2.88
  47  0.722  0.222  0.464-  41 2.88  42 2.88  52 2.88  53 2.88  46 2.88  48 2.88  78 2.88  83 2.88
                            17 2.88  12 2.88  11 2.88  84 2.88
  48  0.889  0.222  0.464-  42 2.88  53 2.88  54 2.88  47 2.88  12 2.88  73 2.88  84 2.88  37 2.88
                            18 2.88  79 2.88   7 2.88  43 2.88
  49  0.056  0.389  0.464-  43 2.88  44 2.88  50 2.88  14 2.88  13 2.88  80 2.88  19 2.88  85 2.88
                            86 2.88  60 2.88  55 2.88  54 2.88
  50  0.222  0.389  0.464-  44 2.88  45 2.88  49 2.88  51 2.88  14 2.88  81 2.88  86 2.88  55 2.88
                            20 2.88  15 2.88  87 2.88  56 2.88
  51  0.389  0.389  0.464-  15 2.88  45 2.88  50 2.88  82 2.88  87 2.88  46 2.88  56 2.88  21 2.88
                            16 2.88  88 2.88  57 2.88  52 2.88
  52  0.556  0.389  0.464-  46 2.88  47 2.88  53 2.88  17 2.88  16 2.88  83 2.88  22 2.88  88 2.88
                            89 2.88  58 2.88  57 2.88  51 2.88
  53  0.722  0.389  0.464-  47 2.88  48 2.88  52 2.88  54 2.88  17 2.88  84 2.88  89 2.88  58 2.88
                            23 2.88  18 2.88  90 2.88  59 2.88
  54  0.889  0.389  0.464-  18 2.88  48 2.88  53 2.88  79 2.88  90 2.88  43 2.88  59 2.88  24 2.88
                            85 2.88  13 2.88  60 2.88  49 2.88
  55  0.056  0.556  0.464-  61 2.88  56 2.88  20 2.88  25 2.88  50 2.88  66 2.88  86 2.88  19 2.88
                            91 2.88  92 2.88  49 2.88  60 2.88
  56  0.222  0.556  0.464-  61 2.88  62 2.88  55 2.88  57 2.88  26 2.88  92 2.88  51 2.88  87 2.88
                            20 2.88  21 2.88  93 2.88  50 2.88
  57  0.389  0.556  0.464-  62 2.88  63 2.88  56 2.88  27 2.88  21 2.88  93 2.88  88 2.88  22 2.88
                            94 2.88  51 2.88  52 2.88  58 2.88
  58  0.556  0.556  0.464-  64 2.88  59 2.88  23 2.88  28 2.88  63 2.88  53 2.88  89 2.88  22 2.88
                            94 2.88  95 2.88  52 2.88  57 2.88
  59  0.722  0.556  0.464-  64 2.88  65 2.88  58 2.88  60 2.88  29 2.88  95 2.88  54 2.88  90 2.88
                            23 2.88  24 2.88  96 2.88  53 2.88
  60  0.889  0.556  0.464-  65 2.88  66 2.88  59 2.88  30 2.88  24 2.88  96 2.88  85 2.88  91 2.88
                            19 2.88  49 2.88  54 2.88  55 2.88
  61  0.056  0.722  0.464-  55 2.88  56 2.88  67 2.88  62 2.88  26 2.88  92 2.88  72 2.88  31 2.88
                            25 2.88  97 2.88  98 2.88  66 2.88
  62  0.222  0.722  0.464-  56 2.88  57 2.88  67 2.88  68 2.88  61 2.88  63 2.88  93 2.88  98 2.88
                            32 2.88  27 2.88  26 2.88  99 2.88
  63  0.389  0.722  0.464-  57 2.88  68 2.88  69 2.88  62 2.88  27 2.88  94 2.88  99 2.88  58 2.88
                            33 2.88  28 2.88 100 2.88  64 2.88
  64  0.556  0.722  0.464-  58 2.88  59 2.88  70 2.88  65 2.88  29 2.88  95 2.88  69 2.88  34 2.88
                            28 2.88 100 2.88 101 2.88  63 2.88
  65  0.722  0.722  0.464-  59 2.88  60 2.88  70 2.88  71 2.88  64 2.88  66 2.88  96 2.88 101 2.88
                            35 2.88  30 2.88  29 2.88 102 2.88
  66  0.889  0.722  0.464-  60 2.88  71 2.88  72 2.88  65 2.88  30 2.88  91 2.88 102 2.88  55 2.88
                            36 2.88  97 2.88  25 2.88  61 2.88
  67  0.056  0.889  0.464-  61 2.88  62 2.88  68 2.88  32 2.88  31 2.88  98 2.88   1 2.88 103 2.88
                           104 2.88  37 2.88  42 2.88  72 2.88
  68  0.222  0.889  0.464-  62 2.88  63 2.88  67 2.88  69 2.88  32 2.88  99 2.88 104 2.88  37 2.88
                             2 2.88  33 2.88 105 2.88  38 2.88
  69  0.389  0.889  0.464-  33 2.88  63 2.88  68 2.88 100 2.88 105 2.88  64 2.88  38 2.88   3 2.88
                            34 2.88 106 2.88  39 2.88  70 2.88
  70  0.556  0.889  0.464-  64 2.88  65 2.88  71 2.88  35 2.88  34 2.88 101 2.88   4 2.88 106 2.88
                           107 2.88  39 2.88  40 2.88  69 2.88
  71  0.722  0.889  0.464-  65 2.88  66 2.88  70 2.88  72 2.88  35 2.88 102 2.88 107 2.88  40 2.88
                             5 2.88  36 2.88 108 2.88  41 2.88
  72  0.889  0.889  0.464-  36 2.88  66 2.88  71 2.88  97 2.88 108 2.88  41 2.88  61 2.88   6 2.88
                           103 2.88  31 2.88  42 2.88  67 2.88
  73  0.944  0.111  0.536-  79 2.88  84 2.88  78 2.88  48 2.88 115 2.88 120 2.88 109 2.88  42 2.88
                            37 2.88 104 2.88 103 2.88  74 2.88
  74  0.111  0.111  0.536- 116 2.88  80 2.88  75 2.88  43 2.88  38 2.88 105 2.88  79 2.88 110 2.88
                           115 2.88  37 2.88 104 2.88  73 2.88
  75  0.278  0.111  0.536-  80 2.88  81 2.88  74 2.88  76 2.88  39 2.88  44 2.88 117 2.88 106 2.88
                           111 2.88 116 2.88  38 2.88 105 2.88
  76  0.444  0.111  0.536-  81 2.88  82 2.88  75 2.88  45 2.88 117 2.88 118 2.88 112 2.88  40 2.88
                            39 2.88 107 2.88 106 2.88  77 2.88
  77  0.611  0.111  0.536- 119 2.88  83 2.88  78 2.88  46 2.88  41 2.88 108 2.88  82 2.88 113 2.88
                           118 2.88  40 2.88 107 2.88  76 2.88
  78  0.778  0.111  0.536-  83 2.88  84 2.88  73 2.88  77 2.88  42 2.88  47 2.88 120 2.88 103 2.88
                           114 2.88 119 2.88  41 2.88 108 2.88
  79  0.944  0.278  0.536-  73 2.88  85 2.88  90 2.88  84 2.88  54 2.88 126 2.88  74 2.88 115 2.88
                            43 2.88 121 2.88  48 2.88  80 2.88
  80  0.111  0.278  0.536-  74 2.88  75 2.88  86 2.88  81 2.88  44 2.88  49 2.88 122 2.88  85 2.88
                           116 2.88 121 2.88  43 2.88  79 2.88
  81  0.278  0.278  0.536-  75 2.88  76 2.88  86 2.88  87 2.88  80 2.88  82 2.88  45 2.88  50 2.88
                           117 2.88  44 2.88 122 2.88 123 2.88
  82  0.444  0.278  0.536-  76 2.88  87 2.88  88 2.88  81 2.88  51 2.88 123 2.88  77 2.88 118 2.88
                            45 2.88  46 2.88 124 2.88  83 2.88
  83  0.611  0.278  0.536-  77 2.88  78 2.88  89 2.88  84 2.88  47 2.88  52 2.88 125 2.88  88 2.88
                           119 2.88 124 2.88  46 2.88  82 2.88
  84  0.778  0.278  0.536-  73 2.88  78 2.88  89 2.88  90 2.88  79 2.88  83 2.88  48 2.88  53 2.88
                           120 2.88  47 2.88 125 2.88 126 2.88
  85  0.944  0.444  0.536-  79 2.88  90 2.88 121 2.88 132 2.88  80 2.88  96 2.88  60 2.88  54 2.88
                           127 2.88  49 2.88  91 2.88  86 2.88
  86  0.111  0.444  0.536-  80 2.88  81 2.88  87 2.88  50 2.88 122 2.88 128 2.88  55 2.88 127 2.88
                            49 2.88  92 2.88  91 2.88  85 2.88
  87  0.278  0.444  0.536-  81 2.88  82 2.88  86 2.88  88 2.88  51 2.88 123 2.88  92 2.88  56 2.88
                            50 2.88 128 2.88 129 2.88  93 2.88
  88  0.444  0.444  0.536-  82 2.88  87 2.88 124 2.88 129 2.88  83 2.88  93 2.88  57 2.88  52 2.88
                            51 2.88 130 2.88  94 2.88  89 2.88
  89  0.611  0.444  0.536-  83 2.88  84 2.88  90 2.88  53 2.88 125 2.88 131 2.88  58 2.88 130 2.88
                            52 2.88  95 2.88  94 2.88  88 2.88
  90  0.778  0.444  0.536-  79 2.88  84 2.88  85 2.88  89 2.88  54 2.88 126 2.88  95 2.88  59 2.88
                            53 2.88 131 2.88 132 2.88  96 2.88
  91  0.944  0.611  0.536-  97 2.88 102 2.88  96 2.88  66 2.88 133 2.88 138 2.88 127 2.88  60 2.88
                            55 2.88  85 2.88  86 2.88  92 2.88
  92  0.111  0.611  0.536- 134 2.88  98 2.88  93 2.88  61 2.88  56 2.88  87 2.88  97 2.88 128 2.88
                           133 2.88  55 2.88  86 2.88  91 2.88
  93  0.278  0.611  0.536-  98 2.88  99 2.88  92 2.88  94 2.88  57 2.88  62 2.88 135 2.88  88 2.88
                           129 2.88 134 2.88  56 2.88  87 2.88
  94  0.444  0.611  0.536-  99 2.88 100 2.88  93 2.88  63 2.88 135 2.88 136 2.88 130 2.88  58 2.88
                            57 2.88  88 2.88  89 2.88  95 2.88
  95  0.611  0.611  0.536- 137 2.88 101 2.88  96 2.88  64 2.88  59 2.88  90 2.88 100 2.88 131 2.88
                           136 2.88  58 2.88  89 2.88  94 2.88
  96  0.778  0.611  0.536- 101 2.88 102 2.88  91 2.88  95 2.88  60 2.88  65 2.88 138 2.88  85 2.88
                           132 2.88 137 2.88  59 2.88  90 2.88
  97  0.944  0.778  0.536-  91 2.88 103 2.88 108 2.88 102 2.88  72 2.88 144 2.88  92 2.88 133 2.88
                            61 2.88 139 2.88  66 2.88  98 2.88
  98  0.111  0.778  0.536-  92 2.88  93 2.88 104 2.88  99 2.88  62 2.88  67 2.88 140 2.88 103 2.88
                           134 2.88 139 2.88  61 2.88  97 2.88
  99  0.278  0.778  0.536-  93 2.88  94 2.88 104 2.88 105 2.88  98 2.88 100 2.88  63 2.88  68 2.88
                           135 2.88  62 2.88 140 2.88 141 2.88
 100  0.444  0.778  0.536-  94 2.88 105 2.88 106 2.88  99 2.88  69 2.88 141 2.88  95 2.88 136 2.88
                            63 2.88  64 2.88 142 2.88 101 2.88
 101  0.611  0.778  0.536-  95 2.88  96 2.88 107 2.88 102 2.88  65 2.88  70 2.88 143 2.88 106 2.88
                           137 2.88 142 2.88  64 2.88 100 2.88
 102  0.778  0.778  0.536-  91 2.88  96 2.88 107 2.88 108 2.88  97 2.88 101 2.88  66 2.88  71 2.88
                           138 2.88  65 2.88 143 2.88 144 2.88
 103  0.944  0.944  0.536-  97 2.88 108 2.88 114 2.88 139 2.88  98 2.88  78 2.88  42 2.88 109 2.88
                            67 2.88  72 2.88  73 2.88 104 2.88
 104  0.111  0.944  0.536-  98 2.88  99 2.88 105 2.88  68 2.88 110 2.88 140 2.88  37 2.88  67 2.88
                           109 2.88  73 2.88  74 2.88 103 2.88
 105  0.278  0.944  0.536-  99 2.88 100 2.88 104 2.88 106 2.88  69 2.88 141 2.88  74 2.88  38 2.88
                           110 2.88 111 2.88  68 2.88  75 2.88
 106  0.444  0.944  0.536- 100 2.88 105 2.88 111 2.88 142 2.88 101 2.88  75 2.88  39 2.88  69 2.88
                           112 2.88  70 2.88  76 2.88 107 2.88
 107  0.611  0.944  0.536- 101 2.88 102 2.88 108 2.88  71 2.88 113 2.88 143 2.88  40 2.88  70 2.88
                           112 2.88  76 2.88  77 2.88 106 2.88
 108  0.778  0.944  0.536-  97 2.88 102 2.88 103 2.88 107 2.88  72 2.88 144 2.88  77 2.88  41 2.88
                           113 2.88 114 2.88  71 2.88  78 2.88
 109  0.000  0.000  0.607- 115 2.88 120 2.88 139 2.88 140 2.88 110 2.88 114 2.88  73 2.88 103 2.88
                           104 2.88
 110  0.167  0.000  0.607- 115 2.88 116 2.88 140 2.88 109 2.88 104 2.88 141 2.88  74 2.88 105 2.88
                           111 2.88
 111  0.333  0.000  0.607- 117 2.88 141 2.88 142 2.88 112 2.88 106 2.88 116 2.88  75 2.88 105 2.88
                           110 2.88
 112  0.500  0.000  0.607- 117 2.88 118 2.88 142 2.88 143 2.88 111 2.88 113 2.88  76 2.88 106 2.88
                           107 2.88
 113  0.667  0.000  0.607- 118 2.88 119 2.88 143 2.88 112 2.88 107 2.88 144 2.88  77 2.88 108 2.88
                           114 2.88
 114  0.833  0.000  0.607- 120 2.88 139 2.88 144 2.88 109 2.88 103 2.88 119 2.88  78 2.88 108 2.88
                           113 2.88
 115  0.000  0.167  0.607- 109 2.88 110 2.88 116 2.88 120 2.88  73 2.88 126 2.88  79 2.88  74 2.88
                           121 2.88
 116  0.167  0.167  0.607-  74 2.88 110 2.88 115 2.88 111 2.88 121 2.88  80 2.88  75 2.88 122 2.88
                           117 2.88
 117  0.333  0.167  0.607- 111 2.88 112 2.88 118 2.88  76 2.88  75 2.88  81 2.88 122 2.88 123 2.88
                           116 2.88
 118  0.500  0.167  0.607- 112 2.88 113 2.88 117 2.88 119 2.88  76 2.88 123 2.88  82 2.88  77 2.88
                           124 2.88
 119  0.667  0.167  0.607-  77 2.88 113 2.88 118 2.88 114 2.88 124 2.88  83 2.88  78 2.88 125 2.88
                           120 2.88
 120  0.833  0.167  0.607- 109 2.88 114 2.88 115 2.88  78 2.88  73 2.88  84 2.88 125 2.88 126 2.88
                           119 2.88
 121  0.000  0.333  0.607- 127 2.88 132 2.88 122 2.88 126 2.88  85 2.88 116 2.88  79 2.88  80 2.88
                           115 2.88
 122  0.167  0.333  0.607- 127 2.88 128 2.88 121 2.88  86 2.88  80 2.88  81 2.88 117 2.88 116 2.88
                           123 2.88
 123  0.333  0.333  0.607- 129 2.88 124 2.88  82 2.88  87 2.88 128 2.88 118 2.88  81 2.88 117 2.88
                           122 2.88
 124  0.500  0.333  0.607- 129 2.88 130 2.88 123 2.88 125 2.88  88 2.88 119 2.88  82 2.88  83 2.88
                           118 2.88
 125  0.667  0.333  0.607- 130 2.88 131 2.88 124 2.88  89 2.88  83 2.88  84 2.88 120 2.88 119 2.88
                           126 2.88
 126  0.833  0.333  0.607- 132 2.88 121 2.88  79 2.88  90 2.88 131 2.88 115 2.88  84 2.88 120 2.88
                           125 2.88
 127  0.000  0.500  0.607- 121 2.88 122 2.88 133 2.88 138 2.88 128 2.88 132 2.88  91 2.88  86 2.88
                            85 2.88
 128  0.167  0.500  0.607- 122 2.88 133 2.88 134 2.88 127 2.88  86 2.88 123 2.88  92 2.88  87 2.88
                           129 2.88
 129  0.333  0.500  0.607- 123 2.88 124 2.88 135 2.88 130 2.88  88 2.88 134 2.88  93 2.88  87 2.88
                           128 2.88
 130  0.500  0.500  0.607- 124 2.88 125 2.88 135 2.88 136 2.88 129 2.88 131 2.88  94 2.88  89 2.88
                            88 2.88
 131  0.667  0.500  0.607- 125 2.88 136 2.88 137 2.88 130 2.88  89 2.88 126 2.88  95 2.88  90 2.88
                           132 2.88
 132  0.833  0.500  0.607- 121 2.88 126 2.88 138 2.88 127 2.88  85 2.88 137 2.88  96 2.88  90 2.88
                           131 2.88
 133  0.000  0.667  0.607- 127 2.88 128 2.88 134 2.88 138 2.88  91 2.88 144 2.88  97 2.88  92 2.88
                           139 2.88
 134  0.167  0.667  0.607-  92 2.88 128 2.88 133 2.88 129 2.88 139 2.88  98 2.88  93 2.88 140 2.88
                           135 2.88
 135  0.333  0.667  0.607- 129 2.88 130 2.88 136 2.88  94 2.88  93 2.88  99 2.88 140 2.88 141 2.88
                           134 2.88
 136  0.500  0.667  0.607- 130 2.88 131 2.88 135 2.88 137 2.88  94 2.88 141 2.88 100 2.88  95 2.88
                           142 2.88
 137  0.667  0.667  0.607-  95 2.88 131 2.88 136 2.88 132 2.88 142 2.88 101 2.88  96 2.88 143 2.88
                           138 2.88
 138  0.833  0.667  0.607- 127 2.88 132 2.88 133 2.88  96 2.88  91 2.88 102 2.88 143 2.88 144 2.88
                           137 2.88
 139  0.000  0.833  0.607- 109 2.88 114 2.88 140 2.88 144 2.88 103 2.88 134 2.88  97 2.88  98 2.88
                           133 2.88
 140  0.167  0.833  0.607- 109 2.88 110 2.88 139 2.88 104 2.88  98 2.88  99 2.88 135 2.88 134 2.88
                           141 2.88
 141  0.333  0.833  0.607- 111 2.88 142 2.88 100 2.88 105 2.88 136 2.88 110 2.88  99 2.88 135 2.88
                           140 2.88
 142  0.500  0.833  0.607- 111 2.88 112 2.88 141 2.88 143 2.88 106 2.88 137 2.88 100 2.88 101 2.88
                           136 2.88
 143  0.667  0.833  0.607- 112 2.88 113 2.88 142 2.88 107 2.88 101 2.88 102 2.88 138 2.88 137 2.88
                           144 2.88
 144  0.833  0.833  0.607- 114 2.88 139 2.88  97 2.88 108 2.88 133 2.88 113 2.88 102 2.88 138 2.88
                           143 2.88
 
  LATTYP: Found a hexagonal cell.
 ALAT       =    17.3099740034
 C/A-ratio  =     1.9102724989
  
  Lattice vectors:
  
 A1 = (  -8.6549870017, -14.9908772258,   0.0000000000)
 A2 = (  17.3099740034,   0.0000000000,   0.0000000000)
 A3 = (   0.0000000000,   0.0000000000,  33.0667672949)


Analysis of symmetry for initial positions (statically):
=====================================================================
 Subroutine PRICEL returns following result:
 
  LATTYP: Found a hexagonal cell.
 ALAT       =     2.8849956672
 C/A-ratio  =    11.4616349932
  
  Lattice vectors:
  
 A1 = (  -1.4424978336,  -2.4984795376,   0.0000000000)
 A2 = (   2.8849956672,   0.0000000000,   0.0000000000)
 A3 = (   0.0000000000,   0.0000000000,  33.0667672949)
 
  36 primitive cells build up your supercell.
 

 Routine SETGRP: Setting up the symmetry group for a 
 hexagonal supercell.


 Subroutine GETGRP returns: Found 12 space group operations
 (whereof 12 operations were pure point group operations)
 out of a pool of 24 trial point group operations.


The static configuration has the point symmetry D_3d.


Analysis of symmetry for dynamics (positions and initial velocities):
=====================================================================
 Subroutine PRICEL returns following result:
 
  LATTYP: Found a hexagonal cell.
 ALAT       =     2.8849956672
 C/A-ratio  =    11.4616349932
  
  Lattice vectors:
  
 A1 = (  -1.4424978336,  -2.4984795376,   0.0000000000)
 A2 = (   2.8849956672,   0.0000000000,   0.0000000000)
 A3 = (   0.0000000000,   0.0000000000,  33.0667672949)
 
  36 primitive cells build up your supercell.
 

 Routine SETGRP: Setting up the symmetry group for a 
 hexagonal supercell.


 Subroutine GETGRP returns: Found 12 space group operations
 (whereof 12 operations were pure point group operations)
 out of a pool of 24 trial point group operations.


The dynamic configuration has the point symmetry D_3d.


Analysis of constrained symmetry for selective dynamics:
=====================================================================
 Subroutine PRICEL returns following result:
 
  LATTYP: Found a hexagonal cell.
 ALAT       =     2.8849956672
 C/A-ratio  =    11.4616349932
  
  Lattice vectors:
  
 A1 = (  -1.4424978336,  -2.4984795376,   0.0000000000)
 A2 = (   2.8849956672,   0.0000000000,   0.0000000000)
 A3 = (   0.0000000000,   0.0000000000,  33.0667672949)
 
  36 primitive cells build up your supercell.
 

 Routine SETGRP: Setting up the symmetry group for a 
 hexagonal supercell.


 Subroutine GETGRP returns: Found  6 space group operations
 (whereof  6 operations were pure point group operations)
 out of a pool of 24 trial point group operations.


The constrained configuration has the point symmetry C_3v.


 Subroutine INISYM returns: Found  6 space group operations
 (whereof  6 operations are pure point group operations),
 and found    36 'primitive' translations


----------------------------------------------------------------------------------------

                                     Primitive cell                                     

  volume of cell :     238.3487

  direct lattice vectors                    reciprocal lattice vectors
    -1.442497834 -2.498479538  0.000000000     0.000000000 -0.400243422  0.000000000
     2.884995667  0.000000000  0.000000000     0.346620971 -0.200121711  0.000000000
     0.000000000  0.000000000 33.066767295     0.000000000  0.000000000  0.030241843

  length of vectors
     2.884995667  2.884995667 33.066767295     0.400243422  0.400243422  0.030241843

  position of ions in fractional coordinates (direct lattice)
     0.000000000  0.000000000  0.393143965
     0.666666667  0.333333333  0.464381322
     0.333333333  0.666666667  0.535618678
     0.000000000  0.000000000  0.606856035

  ion indices of the primitive-cell ions
   primitive index   ion index
                 1           1
                 2          37
                 3         103
                 4         109

----------------------------------------------------------------------------------------

 
 
 KPOINTS: KPOINTS created by Atomic Simulation Env

Automatic generation of k-mesh.
 Grid dimensions read from file:
 generate k-points for:    2    2    1

 Generating k-lattice:

  Cartesian coordinates                     Fractional coordinates (reciprocal lattice)
     0.028885081 -0.016676809  0.000000000     0.500000000 -0.000000000  0.000000000
     0.000000000  0.033353619  0.000000000     0.000000000  0.500000000  0.000000000
     0.000000000  0.000000000  0.030241843     0.000000000  0.000000000  1.000000000

  Length of vectors
     0.033353619  0.033353619  0.030241843

  Shift w.r.t. Gamma in fractional coordinates (k-lattice)
     0.500000000  0.500000000  0.000000000

 
 Subroutine IBZKPT returns following result:
 ===========================================
 
 Found      2 irreducible k-points:
 
 Following reciprocal coordinates:
            Coordinates               Weight
  0.250000  0.250000  0.000000      6.000000
 -0.250000  0.250000  0.000000      6.000000
 
 Following cartesian coordinates:
            Coordinates               Weight
  0.014443  0.008338  0.000000      6.000000
 -0.014443  0.025015  0.000000      6.000000
 


--------------------------------------------------------------------------------------------------------




 Dimension of arrays:
   k-points           NKPTS =      2   k-points in BZ     NKDIM =      2   number of bands    NBANDS=    960
   number of dos      NEDOS =    301   number of ions     NIONS =    144
   non local maximal  LDIM  =      6   non local SUM 2l+1 LMDIM =     18
   total plane-waves  NPLWV = ******
   max r-space proj   IRMAX =   2368   max aug-charges    IRDMAX=  12809
   dimension x,y,z NGX =    96 NGY =   96 NGZ =  192
   dimension x,y,z NGXF=   192 NGYF=  192 NGZF=  384
   support grid    NGXF=   192 NGYF=  192 NGZF=  384
   ions per type =             144
   NGX,Y,Z   is equivalent  to a cutoff of   9.22,  9.22,  9.65 a.u.
   NGXF,Y,Z  is equivalent  to a cutoff of  18.44, 18.44, 19.31 a.u.

 SYSTEM =  unknown system                          
 POSCAR =  Au                                      

 Startparameter for this run:
   NWRITE =      2    write-flag & timer
   PREC   = normal    normal or accurate (medium, high low for compatibility)
   ISTART =      0    job   : 0-new  1-cont  2-samecut
   ICHARG =      2    charge: 1-file 2-atom 10-const
   ISPIN  =      1    spin polarized calculation?
   LNONCOLLINEAR =      F non collinear calculations
   LSORBIT =      F    spin-orbit coupling
   INIWAV =      1    electr: 0-lowe 1-rand  2-diag
   LASPH  =      F    aspherical Exc in radial PAW
 Electronic Relaxation 1
   ENCUT  =  500.0 eV  36.75 Ry    6.06 a.u.  31.56 31.56 60.29*2*pi/ulx,y,z
   ENINI  =  500.0     initial cutoff
   ENAUG  =  356.7 eV  augmentation charge cutoff
   NELM   =    200;   NELMIN=  2; NELMDL=  0     # of ELM steps 
   EDIFF  = 0.1E-04   stopping-criterion for ELM
   LREAL  =      T    real-space projection
   NLSPLINE    = F    spline interpolate recip. space projectors
   LCOMPAT=      F    compatible to vasp.4.4
   GGA_COMPAT  = T    GGA compatible to vasp.4.4-vasp.4.6
   LMAXPAW     = -100 max onsite density
   LMAXMIX     =    2 max onsite mixed and CHGCAR
   VOSKOWN=      0    Vosko Wilk Nusair interpolation
   ROPT   =   -0.00050
 Ionic relaxation
   EDIFFG = -.2E-01   stopping-criterion for IOM
   NSW    =    500    number of steps for IOM
   NBLOCK =      1;   KBLOCK =    500    inner block; outer block 
   IBRION =      2    ionic relax: 0-MD 1-quasi-New 2-CG
   NFREE  =      1    steps in history (QN), initial steepest desc. (CG)
   ISIF   =      2    stress and relaxation
   IWAVPR =     11    prediction:  0-non 1-charg 2-wave 3-comb
   ISYM   =      2    0-nonsym 1-usesym 2-fastsym
   LCORR  =      T    Harris-Foulkes like correction to forces

   POTIM  = 0.5000    time-step for ionic-motion
   TEIN   =    0.0    initial temperature
   TEBEG  =    0.0;   TEEND  =   0.0 temperature during run
   SMASS  =  -3.00    Nose mass-parameter (am)
   estimated Nose-frequenzy (Omega)   =  0.10E-29 period in steps = 0.13E+47 mass=  -0.685E-26a.u.
   SCALEE = 1.0000    scale energy and forces
   NPACO  =    256;   APACO  = 10.0  distance and # of slots for P.C.
   PSTRESS=    0.0 pullay stress

  Mass of Ions in am
   POMASS = 196.97
  Ionic Valenz
   ZVAL   =  11.00
  Atomic Wigner-Seitz radii
   RWIGS  =  -1.00
  virtual crystal weights 
   VCA    =   1.00
   NELECT =    1584.0000    total number of electrons
   NUPDOWN=      -1.0000    fix difference up-down

 DOS related values:
   EMIN   =  10.00;   EMAX   =-10.00  energy-range for DOS
   EFERMI =   0.00
   ISMEAR =     0;   SIGMA  =   0.01  broadening in eV -4-tet -1-fermi 0-gaus

 Electronic relaxation 2 (details)
   IALGO  =     58    algorithm
   LDIAG  =      T    sub-space diagonalisation (order eigenvalues)
   LSUBROT=      F    optimize rotation matrix (better conditioning)
   TURBO    =      0    0=normal 1=particle mesh
   IRESTART =      0    0=no restart 2=restart with 2 vectors
   NREBOOT  =      0    no. of reboots
   NMIN     =      0    reboot dimension
   EREF     =   0.00    reference energy to select bands
   IMIX   =      4    mixing-type and parameters
     AMIX     =   0.40;   BMIX     =  1.00
     AMIX_MAG =   1.60;   BMIX_MAG =  1.00
     AMIN     =   0.10
     WC   =   100.;   INIMIX=   1;  MIXPRE=   1;  MAXMIX= -45

 Intra band minimization:
   WEIMIN = 0.0010     energy-eigenvalue tresh-hold
   EBREAK =  0.26E-08  absolut break condition
   DEPER  =   0.30     relativ break condition  

   TIME   =   0.40     timestep for ELM

  volume/ion in A,a.u.               =      59.59       402.11
  Fermi-wavevector in a.u.,A,eV,Ry     =   0.932155  1.761518 11.822280  0.868913
  Thomas-Fermi vector in A             =   2.058723
 
 Write flags
   LWAVE        =      F    write WAVECAR
   LDOWNSAMPLE  =      F    k-point downsampling of WAVECAR
   LCHARG       =      F    write CHGCAR
   LVTOT        =      F    write LOCPOT, total local potential
   LVHAR        =      F    write LOCPOT, Hartree potential only
   LELF         =      F    write electronic localiz. function (ELF)
   LORBIT       =      0    0 simple, 1 ext, 2 COOP (PROOUT), +10 PAW based schemes


 Dipole corrections
   LMONO  =      F    monopole corrections only (constant potential shift)
   LDIPOL =      T    correct potential (dipole corrections)
   IDIPOL =      3    1-x, 2-y, 3-z, 4-all directions 
   EPSILON=  1.0000000 bulk dielectric constant

 Exchange correlation treatment:
   GGA     =    BF    GGA type
   LEXCH   =    17    internal setting for exchange type
   LIBXC   =     F    Libxc                    
   VOSKOWN =     0    Vosko Wilk Nusair interpolation
   LHFCALC =     F    Hartree Fock is set to
   LHFONE  =     F    Hartree Fock one center treatment
   AEXX    =    0.0000 exact exchange contribution

 vdW DFT:
   LUSE_VDW   =     T    switch on vdW DFT
   Zab_VDW    =******    correlation parameter
   PARAM1     =0.1234
   PARAM2     =1.0000
   PARAM3     =0.0000
   -- rVV10 --
   BPARAM     = 6.3000
   CPARAM     = 0.0093

 Linear response parameters
   LEPSILON=     F    determine dielectric tensor
   LRPA    =     F    only Hartree local field effects (RPA)
   LNABLA  =     F    use nabla operator in PAW spheres
   LVEL    =     F    velocity operator in full k-point grid
   CSHIFT  =0.1000    complex shift for real part using Kramers Kronig
   OMEGAMAX=  -1.0    maximum frequency
   DEG_THRESHOLD= 0.2000000E-02 threshold for treating states as degnerate
   RTIME   =   -0.100 relaxation time in fs
  (WPLASMAI=    0.000 imaginary part of plasma frequency in eV, 0.658/RTIME)
   DFIELD  = 0.0000000 0.0000000 0.0000000 field for delta impulse in time
 
  Optional k-point grid parameters
   LKPOINTS_OPT  =     F    use optional k-point grid
   KPOINTS_OPT_MODE=     1    mode for optional k-point grid
 
 Orbital magnetization related:
   ORBITALMAG=     F  switch on orbital magnetization
   LCHIMAG   =     F  perturbation theory with respect to B field
   DQ        =  0.001000  dq finite difference perturbation B field
   LLRAUG    =     F  two centre corrections for induced B field



--------------------------------------------------------------------------------------------------------


 conjugate gradient relaxation of ions
   using selective dynamics as specified on POSCAR
   WARNING: If single coordinates had been selected the selection of coordinates
            is made according to the corresponding   d i r e c t   coordinates!
            Don't support selection of single cartesian coordinates -- sorry ...
  !
 charge density and potential will be updated during run
 non-spin polarized calculation
 Conjugate gradient for all bands (Freysoldt, et al. PRB 79, 241103 (2009))
 preconditioned conjugated gradient                                        
 perform sub-space diagonalisation
    before iterative eigenvector-optimisation
 modified Broyden-mixing scheme, WC =      100.0
 initial mixing is a Kerker type mixing with AMIX =  0.4000 and BMIX =      1.0000
 Hartree-type preconditioning will be used
 using additional bands          168
 real space projection scheme for non local part
 use partial core corrections
 no Harris-corrections to forces 
 use gradient corrections 
 use of overlap-Matrix (Vanderbilt PP)
 Gauss-broadening in eV      SIGMA  =   0.01


--------------------------------------------------------------------------------------------------------


  energy-cutoff  :      500.00
  volume of cell :     8580.55
      direct lattice vectors                 reciprocal lattice vectors
    17.309974003  0.000000000  0.000000000     0.057770162 -0.033353619  0.000000000
     8.654987002 14.990877226  0.000000000     0.000000000  0.066707237  0.000000000
     0.000000000  0.000000000 33.066767295     0.000000000  0.000000000  0.030241843

  length of vectors
    17.309974003 17.309974003 33.066767295     0.066707237  0.066707237  0.030241843


 
 k-points in units of 2pi/SCALE and weight: KPOINTS created by Atomic Simulation Env
   0.01444254  0.00833840  0.00000000       0.500
  -0.01444254  0.02501521  0.00000000       0.500
 
 k-points in reciprocal lattice and weights: KPOINTS created by Atomic Simulation Env
   0.25000000  0.25000000  0.00000000       0.500
  -0.25000000  0.25000000  0.00000000       0.500
 
 position of ions in fractional coordinates (direct lattice) 
   0.00000000  0.00000000  0.39314396
   0.16666667  0.00000000  0.39314396
   0.33333333  0.00000000  0.39314396
   0.50000000  0.00000000  0.39314396
   0.66666667  0.00000000  0.39314396
   0.83333333  0.00000000  0.39314396
   0.00000000  0.16666667  0.39314396
   0.16666667  0.16666667  0.39314396
   0.33333333  0.16666667  0.39314396
   0.50000000  0.16666667  0.39314396
   0.66666667  0.16666667  0.39314396
   0.83333333  0.16666667  0.39314396
   0.00000000  0.33333333  0.39314396
   0.16666667  0.33333333  0.39314396
   0.33333333  0.33333333  0.39314396
   0.50000000  0.33333333  0.39314396
   0.66666667  0.33333333  0.39314396
   0.83333333  0.33333333  0.39314396
   0.00000000  0.50000000  0.39314396
   0.16666667  0.50000000  0.39314396
   0.33333333  0.50000000  0.39314396
   0.50000000  0.50000000  0.39314396
   0.66666667  0.50000000  0.39314396
   0.83333333  0.50000000  0.39314396
   0.00000000  0.66666667  0.39314396
   0.16666667  0.66666667  0.39314396
   0.33333333  0.66666667  0.39314396
   0.50000000  0.66666667  0.39314396
   0.66666667  0.66666667  0.39314396
   0.83333333  0.66666667  0.39314396
   0.00000000  0.83333333  0.39314396
   0.16666667  0.83333333  0.39314396
   0.33333333  0.83333333  0.39314396
   0.50000000  0.83333333  0.39314396
   0.66666667  0.83333333  0.39314396
   0.83333333  0.83333333  0.39314396
   0.05555556  0.05555556  0.46438132
   0.22222222  0.05555556  0.46438132
   0.38888889  0.05555556  0.46438132
   0.55555556  0.05555556  0.46438132
   0.72222222  0.05555556  0.46438132
   0.88888889  0.05555556  0.46438132
   0.05555556  0.22222222  0.46438132
   0.22222222  0.22222222  0.46438132
   0.38888889  0.22222222  0.46438132
   0.55555556  0.22222222  0.46438132
   0.72222222  0.22222222  0.46438132
   0.88888889  0.22222222  0.46438132
   0.05555556  0.38888889  0.46438132
   0.22222222  0.38888889  0.46438132
   0.38888889  0.38888889  0.46438132
   0.55555556  0.38888889  0.46438132
   0.72222222  0.38888889  0.46438132
   0.88888889  0.38888889  0.46438132
   0.05555556  0.55555556  0.46438132
   0.22222222  0.55555556  0.46438132
   0.38888889  0.55555556  0.46438132
   0.55555556  0.55555556  0.46438132
   0.72222222  0.55555556  0.46438132
   0.88888889  0.55555556  0.46438132
   0.05555556  0.72222222  0.46438132
   0.22222222  0.72222222  0.46438132
   0.38888889  0.72222222  0.46438132
   0.55555556  0.72222222  0.46438132
   0.72222222  0.72222222  0.46438132
   0.88888889  0.72222222  0.46438132
   0.05555556  0.88888889  0.46438132
   0.22222222  0.88888889  0.46438132
   0.38888889  0.88888889  0.46438132
   0.55555556  0.88888889  0.46438132
   0.72222222  0.88888889  0.46438132
   0.88888889  0.88888889  0.46438132
   0.94444444  0.11111111  0.53561868
   0.11111111  0.11111111  0.53561868
   0.27777778  0.11111111  0.53561868
   0.44444444  0.11111111  0.53561868
   0.61111111  0.11111111  0.53561868
   0.77777778  0.11111111  0.53561868
   0.94444444  0.27777778  0.53561868
   0.11111111  0.27777778  0.53561868
   0.27777778  0.27777778  0.53561868
   0.44444444  0.27777778  0.53561868
   0.61111111  0.27777778  0.53561868
   0.77777778  0.27777778  0.53561868
   0.94444444  0.44444444  0.53561868
   0.11111111  0.44444444  0.53561868
   0.27777778  0.44444444  0.53561868
   0.44444444  0.44444444  0.53561868
   0.61111111  0.44444444  0.53561868
   0.77777778  0.44444444  0.53561868
   0.94444444  0.61111111  0.53561868
   0.11111111  0.61111111  0.53561868
   0.27777778  0.61111111  0.53561868
   0.44444444  0.61111111  0.53561868
   0.61111111  0.61111111  0.53561868
   0.77777778  0.61111111  0.53561868
   0.94444444  0.77777778  0.53561868
   0.11111111  0.77777778  0.53561868
   0.27777778  0.77777778  0.53561868
   0.44444444  0.77777778  0.53561868
   0.61111111  0.77777778  0.53561868
   0.77777778  0.77777778  0.53561868
   0.94444444  0.94444444  0.53561868
   0.11111111  0.94444444  0.53561868
   0.27777778  0.94444444  0.53561868
   0.44444444  0.94444444  0.53561868
   0.61111111  0.94444444  0.53561868
   0.77777778  0.94444444  0.53561868
   0.00000000  0.00000000  0.60685604
   0.16666667  0.00000000  0.60685604
   0.33333333  0.00000000  0.60685604
   0.50000000  0.00000000  0.60685604
   0.66666667  0.00000000  0.60685604
   0.83333333  0.00000000  0.60685604
   0.00000000  0.16666667  0.60685604
   0.16666667  0.16666667  0.60685604
   0.33333333  0.16666667  0.60685604
   0.50000000  0.16666667  0.60685604
   0.66666667  0.16666667  0.60685604
   0.83333333  0.16666667  0.60685604
   0.00000000  0.33333333  0.60685604
   0.16666667  0.33333333  0.60685604
   0.33333333  0.33333333  0.60685604
   0.50000000  0.33333333  0.60685604
   0.66666667  0.33333333  0.60685604
   0.83333333  0.33333333  0.60685604
   0.00000000  0.50000000  0.60685604
   0.16666667  0.50000000  0.60685604
   0.33333333  0.50000000  0.60685604
   0.50000000  0.50000000  0.60685604
   0.66666667  0.50000000  0.60685604
   0.83333333  0.50000000  0.60685604
   0.00000000  0.66666667  0.60685604
   0.16666667  0.66666667  0.60685604
   0.33333333  0.66666667  0.60685604
   0.50000000  0.66666667  0.60685604
   0.66666667  0.66666667  0.60685604
   0.83333333  0.66666667  0.60685604
   0.00000000  0.83333333  0.60685604
   0.16666667  0.83333333  0.60685604
   0.33333333  0.83333333  0.60685604
   0.50000000  0.83333333  0.60685604
   0.66666667  0.83333333  0.60685604
   0.83333333  0.83333333  0.60685604
 
 position of ions in cartesian coordinates  (Angst):
   0.00000000  0.00000000 13.00000000
   2.88499567  0.00000000 13.00000000
   5.76999133  0.00000000 13.00000000
   8.65498700  0.00000000 13.00000000
  11.53998267  0.00000000 13.00000000
  14.42497834  0.00000000 13.00000000
   1.44249783  2.49847954 13.00000000
   4.32749350  2.49847954 13.00000000
   7.21248917  2.49847954 13.00000000
  10.09748484  2.49847954 13.00000000
  12.98248050  2.49847954 13.00000000
  15.86747617  2.49847954 13.00000000
   2.88499567  4.99695908 13.00000000
   5.76999133  4.99695908 13.00000000
   8.65498700  4.99695908 13.00000000
  11.53998267  4.99695908 13.00000000
  14.42497834  4.99695908 13.00000000
  17.30997400  4.99695908 13.00000000
   4.32749350  7.49543861 13.00000000
   7.21248917  7.49543861 13.00000000
  10.09748484  7.49543861 13.00000000
  12.98248050  7.49543861 13.00000000
  15.86747617  7.49543861 13.00000000
  18.75247184  7.49543861 13.00000000
   5.76999133  9.99391815 13.00000000
   8.65498700  9.99391815 13.00000000
  11.53998267  9.99391815 13.00000000
  14.42497834  9.99391815 13.00000000
  17.30997400  9.99391815 13.00000000
  20.19496967  9.99391815 13.00000000
   7.21248917 12.49239769 13.00000000
  10.09748484 12.49239769 13.00000000
  12.98248050 12.49239769 13.00000000
  15.86747617 12.49239769 13.00000000
  18.75247184 12.49239769 13.00000000
  21.63746750 12.49239769 13.00000000
   1.44249783  0.83282651 15.35558910
   4.32749350  0.83282651 15.35558910
   7.21248917  0.83282651 15.35558910
  10.09748484  0.83282651 15.35558910
  12.98248050  0.83282651 15.35558910
  15.86747617  0.83282651 15.35558910
   2.88499567  3.33130605 15.35558910
   5.76999133  3.33130605 15.35558910
   8.65498700  3.33130605 15.35558910
  11.53998267  3.33130605 15.35558910
  14.42497834  3.33130605 15.35558910
  17.30997400  3.33130605 15.35558910
   4.32749350  5.82978559 15.35558910
   7.21248917  5.82978559 15.35558910
  10.09748484  5.82978559 15.35558910
  12.98248050  5.82978559 15.35558910
  15.86747617  5.82978559 15.35558910
  18.75247184  5.82978559 15.35558910
   5.76999133  8.32826513 15.35558910
   8.65498700  8.32826513 15.35558910
  11.53998267  8.32826513 15.35558910
  14.42497834  8.32826513 15.35558910
  17.30997400  8.32826513 15.35558910
  20.19496967  8.32826513 15.35558910
   7.21248917 10.82674466 15.35558910
  10.09748484 10.82674466 15.35558910
  12.98248050 10.82674466 15.35558910
  15.86747617 10.82674466 15.35558910
  18.75247184 10.82674466 15.35558910
  21.63746750 10.82674466 15.35558910
   8.65498700 13.32522420 15.35558910
  11.53998267 13.32522420 15.35558910
  14.42497834 13.32522420 15.35558910
  17.30997400 13.32522420 15.35558910
  20.19496967 13.32522420 15.35558910
  23.07996534 13.32522420 15.35558910
  17.30997400  1.66565303 17.71117820
   2.88499567  1.66565303 17.71117820
   5.76999133  1.66565303 17.71117820
   8.65498700  1.66565303 17.71117820
  11.53998267  1.66565303 17.71117820
  14.42497834  1.66565303 17.71117820
  18.75247184  4.16413256 17.71117820
   4.32749350  4.16413256 17.71117820
   7.21248917  4.16413256 17.71117820
  10.09748484  4.16413256 17.71117820
  12.98248050  4.16413256 17.71117820
  15.86747617  4.16413256 17.71117820
  20.19496967  6.66261210 17.71117820
   5.76999133  6.66261210 17.71117820
   8.65498700  6.66261210 17.71117820
  11.53998267  6.66261210 17.71117820
  14.42497834  6.66261210 17.71117820
  17.30997400  6.66261210 17.71117820
  21.63746750  9.16109164 17.71117820
   7.21248917  9.16109164 17.71117820
  10.09748484  9.16109164 17.71117820
  12.98248050  9.16109164 17.71117820
  15.86747617  9.16109164 17.71117820
  18.75247184  9.16109164 17.71117820
  23.07996534 11.65957118 17.71117820
   8.65498700 11.65957118 17.71117820
  11.53998267 11.65957118 17.71117820
  14.42497834 11.65957118 17.71117820
  17.30997400 11.65957118 17.71117820
  20.19496967 11.65957118 17.71117820
  24.52246317 14.15805071 17.71117820
  10.09748484 14.15805071 17.71117820
  12.98248050 14.15805071 17.71117820
  15.86747617 14.15805071 17.71117820
  18.75247184 14.15805071 17.71117820
  21.63746750 14.15805071 17.71117820
   0.00000000  0.00000000 20.06676729
   2.88499567  0.00000000 20.06676729
   5.76999133  0.00000000 20.06676729
   8.65498700  0.00000000 20.06676729
  11.53998267  0.00000000 20.06676729
  14.42497834  0.00000000 20.06676729
   1.44249783  2.49847954 20.06676729
   4.32749350  2.49847954 20.06676729
   7.21248917  2.49847954 20.06676729
  10.09748484  2.49847954 20.06676729
  12.98248050  2.49847954 20.06676729
  15.86747617  2.49847954 20.06676729
   2.88499567  4.99695908 20.06676729
   5.76999133  4.99695908 20.06676729
   8.65498700  4.99695908 20.06676729
  11.53998267  4.99695908 20.06676729
  14.42497834  4.99695908 20.06676729
  17.30997400  4.99695908 20.06676729
   4.32749350  7.49543861 20.06676729
   7.21248917  7.49543861 20.06676729
  10.09748484  7.49543861 20.06676729
  12.98248050  7.49543861 20.06676729
  15.86747617  7.49543861 20.06676729
  18.75247184  7.49543861 20.06676729
   5.76999133  9.99391815 20.06676729
   8.65498700  9.99391815 20.06676729
  11.53998267  9.99391815 20.06676729
  14.42497834  9.99391815 20.06676729
  17.30997400  9.99391815 20.06676729
  20.19496967  9.99391815 20.06676729
   7.21248917 12.49239769 20.06676729
  10.09748484 12.49239769 20.06676729
  12.98248050 12.49239769 20.06676729
  15.86747617 12.49239769 20.06676729
  18.75247184 12.49239769 20.06676729
  21.63746750 12.49239769 20.06676729
 


--------------------------------------------------------------------------------------------------------


 k-point   1 :   0.2500 0.2500 0.0000  plane waves:  217853
 k-point   2 :  -0.2500 0.2500 0.0000  plane waves:  217794

 maximum and minimum number of plane-waves per node :     27273    27200

 maximum number of plane-waves:    217853
 maximum index in each direction: 
   IXMAX=   31   IYMAX=   31   IZMAX=   60
   IXMIN=  -31   IYMIN=  -31   IZMIN=  -60


 real space projection operators:
  total allocation   :      45694.12 KBytes
  max/ min on nodes  :       5821.88       5558.62


 parallel 3D FFT for wavefunctions:
    minimum data exchange during FFTs selected (reduces bandwidth)
 parallel 3D FFT for charge:
    minimum data exchange during FFTs selected (reduces bandwidth)


 total amount of memory used by VASP MPI-rank0   144038. kBytes
=======================================================================

   base      :      30000. kBytes
   nonlr-proj:      12669. kBytes
   fftplans  :       9233. kBytes
   grid      :      12417. kBytes
   one-center:        279. kBytes
   wavefun   :      79440. kBytes
 
     INWAV:  cpu time      0.0004: real time      0.0006
 Broyden mixing: mesh for mixing (old mesh)
   NGX = 63   NGY = 63   NGZ =121
  (NGX  =192   NGY  =192   NGZ  =384)
  gives a total of 480249 points

 initial charge density was supplied:
 charge density of overlapping atoms calculated
 number of electron    1584.0000000 magnetization 
 charge density for first step will be calculated from the start-wavefunctions


--------------------------------------------------------------------------------------------------------


 Maximum index for non-local projection operator          298
 Maximum index for augmentation-charges          599 (set IRDMAX)


--------------------------------------------------------------------------------------------------------


 First call to EWALD:  gamma=   0.087
 Maximum number of real-space cells 4x 4x 2
 Maximum number of reciprocal cells 2x 2x 4

    FEWALD:  cpu time      0.0148: real time      0.0148


--------------------------------------- Iteration      1(   1)  ---------------------------------------


vdW kernel read from vdw_kernel.bindat
  0.0000  0.2424  0.5071  0.7962  1.1119  1.4567  1.8333  2.2446  2.6937  3.1842
  3.7199  4.3049  4.9438  5.6415  6.4036  7.2358  8.1446  9.1372 10.2212 11.4050
 12.6979 14.1099 15.6519 17.3360 19.1751 21.1837 23.3773 25.7729 28.3892 31.2465
 34.3669 37.7748 41.4965 45.5611 50.0000
 
    POTLOK:  cpu time      3.7936: real time      3.7985
    SETDIJ:  cpu time      0.0374: real time      0.0375
    TRIAL :  cpu time     17.9599: real time     18.0168
    CORREC:  cpu time      0.0105: real time      0.0105
    --------------------------------------------
      LOOP:  cpu time     21.8268: real time     21.8975

 eigenvalue-minimisations  :  3840
 total energy-change (2. order) : 0.1166865E+05  (-0.6965994E+05)
 number of electron    1584.0000000 magnetization 
 augmentation part     1584.0000000 magnetization 

 DIPCOR: dipole corrections for dipol
 direction  3 min pos     1,
 dipolmoment           0.000000      0.000000      0.000000 electrons x Angstroem
 Tr[quadrupol]    -80524.701427

 energy correction for charged system         0.000000 eV
 dipol+quadrupol energy correction           -0.000000 eV
 added-field ion interaction          0.000000 eV  (added to PSCEN)


 Free energy of the ion-electron system (eV)
  ---------------------------------------------------
  alpha Z        PSCENC =      2814.87861296
  Ewald energy   TEWEN  =   1122453.71318076
  -Hartree energ DENC   =  -1258357.56877449
  -exchange      EXHF   =         0.00000000
  -V(xc)+E(xc)   XCENC  =      2176.93934892
  PAW double counting   =    126033.26143058  -122461.66167791
  entropy T*S    EENTRO =        -0.00513127
  eigenvalues    EBANDS =      4547.30478867
  atomic energy  EATOM  =    134461.78459038
  ---------------------------------------------------
  free energy    TOTEN  =     11668.64636858 eV

  energy without entropy =    11668.65149986  energy(sigma->0) =    11668.64893422


--------------------------------------------------------------------------------------------------------




--------------------------------------- Iteration      1(   2)  ---------------------------------------


    TRIAL :  cpu time     20.1107: real time     20.1299
    CORREC:  cpu time      0.0039: real time      0.0039
    --------------------------------------------
      LOOP:  cpu time     20.1169: real time     20.1360

 eigenvalue-minimisations  :  4576
 total energy-change (2. order) :-0.1086347E+05  (-0.9951158E+04)
 number of electron    1584.0000000 magnetization 
 augmentation part     1584.0000000 magnetization 

 DIPCOR: dipole corrections for dipol
 direction  3 min pos     1,
 dipolmoment           0.000000      0.000000      0.000000 electrons x Angstroem
 Tr[quadrupol]    -80524.701427

 energy correction for charged system         0.000000 eV
 dipol+quadrupol energy correction           -0.000000 eV
 added-field ion interaction          0.000000 eV  (added to PSCEN)


 Free energy of the ion-electron system (eV)
  ---------------------------------------------------
  alpha Z        PSCENC =      2814.87861296
  Ewald energy   TEWEN  =   1122453.71318076
  -Hartree energ DENC   =  -1258357.56877449
  -exchange      EXHF   =         0.00000000
  -V(xc)+E(xc)   XCENC  =      2176.93934892
  PAW double counting   =    126033.26143058  -122461.66167791
  entropy T*S    EENTRO =        -0.00337084
  eigenvalues    EBANDS =     -6316.16865604
  atomic energy  EATOM  =    134461.78459038
  ---------------------------------------------------
  free energy    TOTEN  =       805.17468431 eV

  energy without entropy =      805.17805515  energy(sigma->0) =      805.17636973


--------------------------------------------------------------------------------------------------------




--------------------------------------- Iteration      1(   3)  ---------------------------------------


    TRIAL :  cpu time     19.4880: real time     19.5032
    CORREC:  cpu time      0.0036: real time      0.0036
    --------------------------------------------
      LOOP:  cpu time     19.4933: real time     19.5084

 eigenvalue-minimisations  :  4352
 total energy-change (2. order) :-0.8040149E+03  (-0.7723772E+03)
 number of electron    1584.0000000 magnetization 
 augmentation part     1584.0000000 magnetization 

 DIPCOR: dipole corrections for dipol
 direction  3 min pos     1,
 dipolmoment           0.000000      0.000000      0.000000 electrons x Angstroem
 Tr[quadrupol]    -80524.701427

 energy correction for charged system         0.000000 eV
 dipol+quadrupol energy correction           -0.000000 eV
 added-field ion interaction          0.000000 eV  (added to PSCEN)


 Free energy of the ion-electron system (eV)
  ---------------------------------------------------
  alpha Z        PSCENC =      2814.87861296
  Ewald energy   TEWEN  =   1122453.71318076
  -Hartree energ DENC   =  -1258357.56877449
  -exchange      EXHF   =         0.00000000
  -V(xc)+E(xc)   XCENC  =      2176.93934892
  PAW double counting   =    126033.26143058  -122461.66167791
  entropy T*S    EENTRO =        -0.00454230
  eigenvalues    EBANDS =     -7120.18240467
  atomic energy  EATOM  =    134461.78459038
  ---------------------------------------------------
  free energy    TOTEN  =         1.15976422 eV

  energy without entropy =        1.16430652  energy(sigma->0) =        1.16203537


--------------------------------------------------------------------------------------------------------




--------------------------------------- Iteration      1(   4)  ---------------------------------------


    TRIAL :  cpu time     19.6152: real time     19.6298
    CORREC:  cpu time      0.0039: real time      0.0039
    --------------------------------------------
      LOOP:  cpu time     19.6211: real time     19.6356

 eigenvalue-minimisations  :  4512
 total energy-change (2. order) :-0.1938698E+02  (-0.1921023E+02)
 number of electron    1584.0000000 magnetization 
 augmentation part     1584.0000000 magnetization 

 DIPCOR: dipole corrections for dipol
 direction  3 min pos     1,
 dipolmoment           0.000000      0.000000      0.000000 electrons x Angstroem
 Tr[quadrupol]    -80524.701427

 energy correction for charged system         0.000000 eV
 dipol+quadrupol energy correction           -0.000000 eV
 added-field ion interaction          0.000000 eV  (added to PSCEN)


 Free energy of the ion-electron system (eV)
  ---------------------------------------------------
  alpha Z        PSCENC =      2814.87861296
  Ewald energy   TEWEN  =   1122453.71318076
  -Hartree energ DENC   =  -1258357.56877449
  -exchange      EXHF   =         0.00000000
  -V(xc)+E(xc)   XCENC  =      2176.93934892
  PAW double counting   =    126033.26143058  -122461.66167791
  entropy T*S    EENTRO =        -0.00587490
  eigenvalues    EBANDS =     -7139.56805706
  atomic energy  EATOM  =    134461.78459038
  ---------------------------------------------------
  free energy    TOTEN  =       -18.22722078 eV

  energy without entropy =      -18.22134588  energy(sigma->0) =      -18.22428333


--------------------------------------------------------------------------------------------------------




--------------------------------------- Iteration      1(   5)  ---------------------------------------


    TRIAL :  cpu time     19.6155: real time     19.6304
    CORREC:  cpu time      0.0040: real time      0.0040
    CHARGE:  cpu time      2.4784: real time      2.4797
    --------------------------------------------
      LOOP:  cpu time     22.0999: real time     22.1160

 eigenvalue-minimisations  :  4384
 total energy-change (2. order) :-0.5683643E+00  (-0.5667410E+00)
 number of electron    1583.9999863 magnetization 
 augmentation part      574.7907176 magnetization 

 DIPCOR: dipole corrections for dipol
 direction  3 min pos     1,
 dipolmoment           0.000000      0.000000      0.000000 electrons x Angstroem
 Tr[quadrupol]    -80524.701427

 energy correction for charged system         0.000000 eV
 dipol+quadrupol energy correction           -0.000000 eV
 added-field ion interaction          0.000000 eV  (added to PSCEN)


 Free energy of the ion-electron system (eV)
  ---------------------------------------------------
  alpha Z        PSCENC =      2814.87861296
  Ewald energy   TEWEN  =   1122453.71318076
  -Hartree energ DENC   =  -1258357.56877449
  -exchange      EXHF   =         0.00000000
  -V(xc)+E(xc)   XCENC  =      2176.93934892
  PAW double counting   =    126033.26143058  -122461.66167791
  entropy T*S    EENTRO =        -0.00588788
  eigenvalues    EBANDS =     -7140.13640842
  atomic energy  EATOM  =    134461.78459038
  ---------------------------------------------------
  free energy    TOTEN  =       -18.79558511 eV

  energy without entropy =      -18.78969723  energy(sigma->0) =      -18.79264117


--------------------------------------------------------------------------------------------------------




--------------------------------------- Iteration      1(   6)  ---------------------------------------


    POTLOK:  cpu time      2.5717: real time      2.5740
    SETDIJ:  cpu time      0.0317: real time      0.0317
    TRIAL :  cpu time     13.4416: real time     13.4512
    CORREC:  cpu time     13.1570: real time     13.1667
    CHARGE:  cpu time      2.5078: real time      2.5090
    --------------------------------------------
      LOOP:  cpu time     31.7222: real time     31.7449

 eigenvalue-minimisations  :     0
 total energy-change (2. order) : 0.3236590E+02  (-0.1580031E+02)
 number of electron    1583.9999861 magnetization 
 augmentation part      581.2795590 magnetization 

 DIPCOR: dipole corrections for dipol
 direction  3 min pos     1,
 dipolmoment           0.000000      0.000000     -0.000015 electrons x Angstroem
 Tr[quadrupol]    -80593.756600

 energy correction for charged system         0.000000 eV
 dipol+quadrupol energy correction           -0.000000 eV
 added-field ion interaction          0.000000 eV  (added to PSCEN)


 Free energy of the ion-electron system (eV)
  ---------------------------------------------------
  alpha Z        PSCENC =      2814.87861295
  Ewald energy   TEWEN  =   1122453.71318076
  -Hartree energ DENC   =  -1252811.71032432
  -exchange      EXHF   =         0.00000000
  -V(xc)+E(xc)   XCENC  =      2091.70622769
  PAW double counting   =    153524.20388990  -150339.80308966
  entropy T*S    EENTRO =        -0.00819613
  eigenvalues    EBANDS =    -12181.19688030
  atomic energy  EATOM  =    134461.78459038
  ---------------------------------------------------
  free energy    TOTEN  =        13.57031952 eV

  energy without entropy =       13.57851565  energy(sigma->0) =       13.57441759


--------------------------------------------------------------------------------------------------------




--------------------------------------- Iteration      1(   7)  ---------------------------------------


    POTLOK:  cpu time      2.6168: real time      2.6189
    SETDIJ:  cpu time      0.0316: real time      0.0315
    TRIAL :  cpu time     13.1907: real time     13.2011
    CORREC:  cpu time     12.8009: real time     12.8102
    CHARGE:  cpu time      2.4583: real time      2.4606
    --------------------------------------------
      LOOP:  cpu time     31.1061: real time     31.1301

 eigenvalue-minimisations  :     0
 total energy-change (2. order) :-0.1590167E+02  (-0.3792665E+01)
 number of electron    1583.9999860 magnetization 
 augmentation part      586.6557792 magnetization 

 DIPCOR: dipole corrections for dipol
 direction  3 min pos     1,
 dipolmoment           0.000000      0.000000     -0.000297 electrons x Angstroem
 Tr[quadrupol]    -80510.147558

 energy correction for charged system         0.000000 eV
 dipol+quadrupol energy correction           -0.000000 eV
 added-field ion interaction          0.000000 eV  (added to PSCEN)


 Free energy of the ion-electron system (eV)
  ---------------------------------------------------
  alpha Z        PSCENC =      2814.87861296
  Ewald energy   TEWEN  =   1122453.71318076
  -Hartree energ DENC   =  -1257018.10817042
  -exchange      EXHF   =         0.00000000
  -V(xc)+E(xc)   XCENC  =      2114.48763321
  PAW double counting   =    154241.92604211  -151044.02900489
  entropy T*S    EENTRO =        -0.01131998
  eigenvalues    EBANDS =     -8026.97603771
  atomic energy  EATOM  =    134461.78459038
  ---------------------------------------------------
  free energy    TOTEN  =        -2.33134973 eV

  energy without entropy =       -2.32002975  energy(sigma->0) =       -2.32568974


--------------------------------------------------------------------------------------------------------




--------------------------------------- Iteration      1(   8)  ---------------------------------------


    POTLOK:  cpu time      2.5576: real time      2.5600
    SETDIJ:  cpu time      0.0313: real time      0.0313
    TRIAL :  cpu time     13.1282: real time     13.1382
    CORREC:  cpu time     12.7737: real time     12.7840
    CHARGE:  cpu time      2.4470: real time      2.4483
    --------------------------------------------
      LOOP:  cpu time     30.9401: real time     30.9641

 eigenvalue-minimisations  :     0
 total energy-change (2. order) :-0.3777758E+01  (-0.4191527E+00)
 number of electron    1583.9999860 magnetization 
 augmentation part      586.7269191 magnetization 

 DIPCOR: dipole corrections for dipol
 direction  3 min pos     1,
 dipolmoment           0.000000      0.000000      0.001489 electrons x Angstroem
 Tr[quadrupol]    -80503.833537

 energy correction for charged system         0.000000 eV
 dipol+quadrupol energy correction           -0.000000 eV
 added-field ion interaction         -0.000000 eV  (added to PSCEN)


 Free energy of the ion-electron system (eV)
  ---------------------------------------------------
  alpha Z        PSCENC =      2814.87861295
  Ewald energy   TEWEN  =   1122453.71318076
  -Hartree energ DENC   =  -1256881.41560905
  -exchange      EXHF   =         0.00000000
  -V(xc)+E(xc)   XCENC  =      2130.37563720
  PAW double counting   =    154518.15419141  -151307.22278777
  entropy T*S    EENTRO =        -0.01041404
  eigenvalues    EBANDS =     -8196.36560365
  atomic energy  EATOM  =    134461.78459038
  ---------------------------------------------------
  free energy    TOTEN  =        -6.10910776 eV

  energy without entropy =       -6.09869372  energy(sigma->0) =       -6.10390074


--------------------------------------------------------------------------------------------------------




--------------------------------------- Iteration      1(   9)  ---------------------------------------


    POTLOK:  cpu time      2.5454: real time      2.5475
    SETDIJ:  cpu time      0.0325: real time      0.0326
    TRIAL :  cpu time     13.1364: real time     13.1464
    CORREC:  cpu time     12.9838: real time     12.9933
    CHARGE:  cpu time      2.4650: real time      2.4671
    --------------------------------------------
      LOOP:  cpu time     31.1658: real time     31.1895

 eigenvalue-minimisations  :     0
 total energy-change (2. order) :-0.4185546E+00  (-0.3139114E+00)
 number of electron    1583.9999860 magnetization 
 augmentation part      586.8242640 magnetization 

 DIPCOR: dipole corrections for dipol
 direction  3 min pos     1,
 dipolmoment           0.000000      0.000000     -0.008020 electrons x Angstroem
 Tr[quadrupol]    -80510.351116

 energy correction for charged system         0.000000 eV
 dipol+quadrupol energy correction           -0.000001 eV
 added-field ion interaction         -0.000000 eV  (added to PSCEN)


 Free energy of the ion-electron system (eV)
  ---------------------------------------------------
  alpha Z        PSCENC =      2814.87861291
  Ewald energy   TEWEN  =   1122453.71318076
  -Hartree energ DENC   =  -1256379.03458173
  -exchange      EXHF   =         0.00000000
  -V(xc)+E(xc)   XCENC  =      2129.31948377
  PAW double counting   =    154144.99280120  -150931.28317952
  entropy T*S    EENTRO =        -0.00812278
  eigenvalues    EBANDS =     -8700.88815610
  atomic energy  EATOM  =    134461.78459038
  ---------------------------------------------------
  free energy    TOTEN  =        -6.52766238 eV

  energy without entropy =       -6.51953959  energy(sigma->0) =       -6.52360098


--------------------------------------------------------------------------------------------------------




--------------------------------------- Iteration      1(  10)  ---------------------------------------


    POTLOK:  cpu time      2.5470: real time      2.5492
    SETDIJ:  cpu time      0.0314: real time      0.0314
    TRIAL :  cpu time     13.2053: real time     13.2153
    CORREC:  cpu time     12.8235: real time     12.8328
    CHARGE:  cpu time      2.4480: real time      2.4501
    --------------------------------------------
      LOOP:  cpu time     31.0579: real time     31.0813

 eigenvalue-minimisations  :     0
 total energy-change (2. order) :-0.3151532E+00  (-0.8725775E-01)
 number of electron    1583.9999860 magnetization 
 augmentation part      587.1545270 magnetization 

 DIPCOR: dipole corrections for dipol
 direction  3 min pos     1,
 dipolmoment           0.000000      0.000000      0.033901 electrons x Angstroem
 Tr[quadrupol]    -80514.533540

 energy correction for charged system         0.000000 eV
 dipol+quadrupol energy correction           -0.000012 eV
 added-field ion interaction         -0.000000 eV  (added to PSCEN)


 Free energy of the ion-electron system (eV)
  ---------------------------------------------------
  alpha Z        PSCENC =      2814.87861232
  Ewald energy   TEWEN  =   1122453.71318076
  -Hartree energ DENC   =  -1256753.27613024
  -exchange      EXHF   =         0.00000000
  -V(xc)+E(xc)   XCENC  =      2129.29808143
  PAW double counting   =    153811.36191411  -150594.20136442
  entropy T*S    EENTRO =        -0.00699510
  eigenvalues    EBANDS =     -8330.39357711
  atomic energy  EATOM  =    134461.78459038
  ---------------------------------------------------
  free energy    TOTEN  =        -6.84281556 eV

  energy without entropy =       -6.83582046  energy(sigma->0) =       -6.83931801


--------------------------------------------------------------------------------------------------------




--------------------------------------- Iteration      1(  11)  ---------------------------------------


    POTLOK:  cpu time      2.5341: real time      2.5362
    SETDIJ:  cpu time      0.0315: real time      0.0315
    TRIAL :  cpu time     13.1361: real time     13.1467
    CORREC:  cpu time     13.0291: real time     13.0415
    CHARGE:  cpu time      2.4583: real time      2.4604
    --------------------------------------------
      LOOP:  cpu time     31.1920: real time     31.2191

 eigenvalue-minimisations  :     0
 total energy-change (2. order) :-0.8713255E-01  (-0.2994172E-01)
 number of electron    1583.9999860 magnetization 
 augmentation part      587.2724508 magnetization 

 DIPCOR: dipole corrections for dipol
 direction  3 min pos     1,
 dipolmoment           0.000000      0.000000     -0.160565 electrons x Angstroem
 Tr[quadrupol]    -80512.407768

 energy correction for charged system         0.000000 eV
 dipol+quadrupol energy correction           -0.000272 eV
 added-field ion interaction         -0.000000 eV  (added to PSCEN)


 Free energy of the ion-electron system (eV)
  ---------------------------------------------------
  alpha Z        PSCENC =      2814.87859700
  Ewald energy   TEWEN  =   1122453.71318076
  -Hartree energ DENC   =  -1256975.99164923
  -exchange      EXHF   =         0.00000000
  -V(xc)+E(xc)   XCENC  =      2130.78605045
  PAW double counting   =    153700.04316766  -150480.07376387
  entropy T*S    EENTRO =        -0.00532323
  eigenvalues    EBANDS =     -8112.06312615
  atomic energy  EATOM  =    134461.78459038
  ---------------------------------------------------
  free energy    TOTEN  =        -6.92994811 eV

  energy without entropy =       -6.92462488  energy(sigma->0) =       -6.92728650


--------------------------------------------------------------------------------------------------------




[...]
  364              map_backward                          8.117647                   5128   6
  365                map_gather                            0.706864                 2564   7
  366                m_alltoallv_z                         6.718836                 2564   7
  367                map_scatter                           0.641454                 2564   7
  368        ggaall_grid                          30.021246                          441   3
  369        m_sumb_d                              0.516972                         2280   3
  370        fewald                                0.034989                           50   3
  371          rsp                                   0.032511                         50   4
  372          rcp                                   0.002120                         50   4
  373        pothar                                0.025020                           25   3
  374          m_sumb_d                              0.010334                         25   4
  375        m_bcast_d                             0.086786                           25   3
  376      potlok_metagga                        0.000027                             25   2
  377      set_dd_magatom                        0.000083                             13   2
  378      set_dd_paw                            0.288447                             25   2
  379        set_rsgf_all                          0.000042                           25   3
  380        m_sumb_d                              0.284394                          175   3
  381      wavpre_noio                           1.241475                             12   2
  382        stufak                                1.197933                           12   3
  383      eddiag                               88.722753                             12   2
  384        overl                                 0.023072                           24   3
  385        redis_proj                            0.694579                           72   3
  386          m_alltoall_d                          0.684455                       2160   4
  387        fftwav_mpi                            6.272517                          720   3
  388          fft3d_mpi                             5.637225                        720   4
  389            fftbas_mpi                            5.634136                      720   5
  390              fftbas_plan_mpi                       5.632047                    720   6
  391                dfftw_execute                         2.718156                 2160   7
  392                map_forward                           2.509160                 1440   7
  393                  map_gather                            0.721388                720   8
  394                  m_alltoallv_z                         0.585031                720   8
  395                  map_scatter                           0.787849                720   8
  396        hamilt_local                          6.108001                          720   3
  397          vhamil                                0.689795                        720   4
  398          kinhamil                              5.411245                        720   4
  399            fftext_mpi                            5.318402                      720   5
  400              fft3d_mpi                             5.110653                    720   6
  401                fftbas_mpi                            5.108163                  720   7
  402                  fftbas_plan_mpi                       5.105842                720   8
  403                    dfftw_execute                         2.614265             2160   9
  404                    map_backward                          2.093648             1440   9
  405                      map_gather                            0.718917            720  10
  406                      m_alltoallv_z                         0.520295            720  10
  407                      map_scatter                           0.840105            720  10
  408        redis_pw                              2.367155                         1464   3
  409          m_alltoall_d                          2.116359                       2160   4
  410        orth1                                 3.690674                          720   3
  411        m_sumb_d                              1.827934                           24   3
  412        shift_bands_between_low_high          0.000031                           24   3
  413        lincom                                5.483767                           24   3
  414      set_charge                           29.564299                             12   2
  415        soft_charge                           5.949513                           12   3
  416          fftwav_mpi                            5.072532                        600   4
  417            fft3d_mpi                             4.568148                      600   5
  418              fftbas_mpi                            4.565498                    600   6
  419                fftbas_plan_mpi                       4.563672                  600   7
  420                  dfftw_execute                         2.220505               1800   8
  421                  map_forward                           2.010463               1200   8
  422                    map_gather                            0.596594              600   9
  423                    m_alltoallv_z                         0.424733              600   9
  424                    map_scatter                           0.634916              600   9
  425          pw_charge                             0.533988                        600   4
  426          m_sumb_d                              0.252623                         12   4
  427          fft_gq                                0.066101                         12   4
  428            fft3d_mpi                             0.062407                       12   5
  429              fftbrc_mpi                            0.054627                     12   6
  430                fftbas_plan_mpi                       0.054594                   12   7
  431                  dfftw_execute                         0.014814                 36   8
  432                  map_backward                          0.032800                 24   8
  433                    map_gather                            0.008037               24   9
  434                    m_alltoallv_z                         0.023088               24   9
  435                    map_scatter                           0.001370               24   9
  436        m_sumb_d                              0.938015                           12   3
  437        depsum                                0.053966                           12   3
  438          m_sumb_d                              0.031448                         12   4
  439        augmentation_charge                   0.670866                           12   3
  440          m_sumb_d                              0.008374                         12   4
  441          fft3d_mpi                             0.071261                         12   4
  442            fftbrc_mpi                            0.068750                       12   5
  443              fftbas_plan_mpi                       0.068716                     12   6
  444                dfftw_execute                         0.010141                   36   7
  445                map_backward                          0.051206                   24   7
  446                  map_gather                            0.002817                 12   8
  447                  m_alltoallv_z                         0.045189                 12   8
  448                  map_scatter                           0.002986                 12   8
 
 Flat profile
 ============
 
             routine name                   CPU           calls
 ---------------------------------------------------------------
 edwav                                5843.773032         955
 potlok                               1929.297137         981
 set_charge                           1773.923522         968
 lincom                               1127.273237        5798
 dfftw_execute                         851.613223      850044
 m_sumb_d                              488.634988      446228
 orth1                                 457.109404       90351
 m_alltoall_d                          446.520839      982799
 m_alltoallv_z                         397.969392      285297
 map_scatter                           255.814383      285297
 choleski                              247.864380        1930
 map_gather                            223.185371      285297
 ggaall_grid                           198.087288        1410
 fftbas_plan_mpi                       166.628087      283348
 fftwav_mpi                            126.706678      147018
 eddiag                                116.581061         513
 eccp                                  110.809882      113640
 map_forward                            86.575401      370894
 total_time                             74.349596           1
 racc0                                  51.587924       28997
 rpro1                                  49.497685       28697
 augmentation_charge                    47.741765         968
 pw_charge                              42.860654       48404
 crrexp_mul_work_add                    33.344697     4175568
 redis_pw                               30.997293      122587
 crrexp_mul_wave                        29.486607     5592528
 vhamil                                 29.084286       30497
 eddav                                  27.973752           5
 force_and_stress                       25.679454          13
 fftext_mpi                             23.976903       58517
 setdij_                                23.360547        1320
 w1_dscal                               18.914521       28020
 fft3d_mpi                              18.096875      283348
 phaser                                 16.437539        1282
 rpromu_gemm                             9.493208      389376
 m_bcast_z                               9.472167        2957
 ggemm                                   9.257197        1277
 orthch                                  8.323931         965
 lapack                                  6.641394         977
 rspher_all                              5.938940         170
 overl                                   5.152316       33522
 redis_proj                              4.561406      108416
 kinhamil                                3.956678       30497
 m_bcast_d                               3.731572        2988
 rpromu                                  3.214191        2704
 elmin_all                               2.506796          13
 forhar                                  2.027629          13
 forloc                                  2.014103          13
 map_backward                            1.922996      195802
 depsum                                  1.818666         968
 soft_charge                             1.790868         968
 rsp                                     1.335138        1975
 stufak                                  1.297632          13
 densta                                  0.802716         979
 fftbas_mpi                              0.653399      205535
 pothar                                  0.580614         981
 inisym                                  0.478422           1
 w1_copy                                 0.337173        2931
 strnlr                                  0.332632          13
 fft_gq                                  0.309262         968
 hamilt_local                            0.281631       29520
 set_dd_paw                              0.255687         994
 fftbrc_mpi                              0.241852       77813
 rpro_isp                                0.134919         338
 strkin                                  0.130842          13
 fornlr                                  0.110430          13
 setup_precond                           0.089050         300
 rcp                                     0.088660        1975
 apply_precond                           0.084269         677
 posmap                                  0.064250           2
 overl1                                  0.056873         977
 wavpre_noio                             0.043542          12
 strelo                                  0.032956          13
 strehar                                 0.029474          13
 fewald                                  0.026492        1975
 redis_pw_all                            0.018038         955
 hamiltmu                                0.016760         977
 newband                                 0.014586         987
 raccmu_                                 0.009604         977
 redis_pw_over_bands                     0.004046         980
 w1_projall                              0.003408         677
 fordep                                  0.002978          13
 set_rsgf_all                            0.001744         994
 potlok_metagga                          0.001326         981
 truncate_high_frequency_w1              0.001213        1277
 brgrid                                  0.000809           1
 proall                                  0.000527          13
 crpa_reader                             0.000237           1
 set_dd_magatom                          0.000176          26
 shift_bands_between_low_high            0.000061          50
 rotate_active_occupied_orbital          0.000057          13
 vectorpot                               0.000028           1
 ---------------------------------------------------------------
  summed up times    15481.4549701214     
 
 Accumulative profile
 ====================
 
             routine name                   CPU           calls
 ---------------------------------------------------------------
 total_time                          15481.454970           1
 elmin_all                           14987.990167          13
 edwav                                9673.813346         955
 potlok                               2554.082529         981
 set_charge                           2392.851473         968
 fft3d_mpi                            2002.700978      283348
 fftbas_plan_mpi                      1983.708851      283348
 fftbas_mpi                           1572.436303      205535
 fftwav_mpi                           1276.499481      147018
 lincom                               1127.273237        5798
 orthch                                979.673665         965
 dfftw_execute                         851.613223      850044
 map_forward                           668.599010      370894
 m_sumb_d                              488.634988      446228
 soft_charge                           484.162814         968
 eddiag                                461.147079         513
 orth1                                 457.109404       90351
 fftext_mpi                            447.492026       58517
 m_alltoall_d                          446.520839      982799
 fftbrc_mpi                            412.167799       77813
 m_alltoallv_z                         397.969392      285297
 redis_pw                              321.782531      122587
 map_backward                          296.868531      195802
 map_scatter                           255.814383      285297
 hamilt_local                          252.639760       29520
 choleski                              247.864380        1930
 kinhamil                              231.718493       30497
 map_gather                            223.185371      285297
 ggaall_grid                           198.087288        1410
 redis_proj                            160.297007      108416
 force_and_stress                      154.752381          13
 eccp                                  117.787881      113640
 rpro_isp                              109.124762         338
 eddav                                  96.885813           5
 racc0                                  91.846538       28997
 strnlr                                 83.169834          13
 rpro1                                  77.075382       28697
 redis_pw_over_bands                    69.799670         980
 redis_pw_all                           69.795624         955
 augmentation_charge                    53.431422         968
 pw_charge                              42.860654       48404
 crrexp_mul_work_add                    33.344697     4175568
 crrexp_mul_wave                        29.486607     5592528
 vhamil                                 29.084286       30497
 fornlr                                 27.743138          13
 setdij_                                26.726849        1320
 rpromu                                 21.308929        2704
 w1_dscal                               18.914521       28020
 phaser                                 16.437539        1282
 hamiltmu                               11.551857         977
 set_dd_paw                             11.274297         994
 rpromu_gemm                             9.493208      389376
 m_bcast_z                               9.472167        2957
 ggemm                                   9.257197        1277
 proall                                  8.770622          13
 lapack                                  6.641394         977
 rspher_all                              5.938940         170
 fft_gq                                  5.317681         968
 overl                                   5.152316       33522
 depsum                                  4.368885         968
 densta                                  4.213005         979
 m_bcast_d                               3.731572        2988
 newband                                 3.519784         987
 raccmu_                                 3.090448         977
 forloc                                  2.076887          13
 forhar                                  2.068458          13
 w1_projall                              1.823666         677
 fordep                                  1.528110          13
 fewald                                  1.500157        1975
 rsp                                     1.335138        1975
 stufak                                  1.297632          13
 wavpre_noio                             1.241475          12
 pothar                                  1.000974         981
 inisym                                  0.542672           1
 w1_copy                                 0.337173        2931
 strkin                                  0.143858          13
 setup_precond                           0.103010         300
 rcp                                     0.088660        1975
 apply_precond                           0.084269         677
 posmap                                  0.064250           2
 overl1                                  0.056873         977
 strelo                                  0.044835          13
 strehar                                 0.040835          13
 set_rsgf_all                            0.001744         994
 potlok_metagga                          0.001326         981
 truncate_high_frequency_w1              0.001213        1277
 brgrid                                  0.000809           1
 crpa_reader                             0.000237           1
 set_dd_magatom                          0.000176          26
 shift_bands_between_low_high            0.000061          50
 rotate_active_occupied_orbital          0.000057          13
 vectorpot                               0.000028           1
 ---------------------------------------------------------------
 
Profiling took  11.523319  5.213465  0.009013  0.007966 seconds
Profiling took  13.222120 seconds
