 vasp.6.3.2 27Jun22 (build Jan 03 2024 23:25:20) gamma-only                     
  
 executed on           IFC15_impi date 2024.06.14  14:13:38
 running  512 mpi-ranks, with    1 threads/rank
 distrk:  each k-point on  512 cores,    1 groups
 distr:  one band on NCORE=  32 cores,   16 groups


--------------------------------------------------------------------------------------------------------


 INCAR:
   ENCUT = 500.000000
   SIGMA = 0.010000
   EDIFF = 1.00e-05
   ALGO = A
   ISMEAR = 0
   NELM = 200
   NSW = 999
   NCORE = 32
   LCHARG = .TRUE.
   LWAVE = .TRUE.
   LREAL = Auto
   IBRION = 5
   POTIM = 0.015
   NFREE = 2
   ISYM = 0
   EDIFFG = -0.05
   GGA = BF
   LUSE_VDW = .TRUE.
   ZAB_VDW = -1.8867
   LBEEFENS = .TRUE.
   DIPOL = 0.5 0.5 0.65
   IDIPOL = 3
   LDIPOL = .TRUE.

 POTCAR:    PAW_PBE Au 04Oct2007                  
 POTCAR:    PAW_PBE O 08Apr2002                   
 POTCAR:    PAW_PBE Sr_sv 07Sep2000               
 POTCAR:    PAW_PBE Ti_sv 26Sep2005               
 POTCAR:    PAW_PBE H 15Jun2001                   
 -----------------------------------------------------------------------------
|                                                                             |
|               ----> ADVICE to this user running VASP <----                  |
|                                                                             |
|     You have switched on vdW-DFT.                                           |
|     This routine was written and supplied by Jiri Klimes. We recommend      |
|     that you carefully read and cite the following publications:            |
|       J. Klimes, D.R. Bowler, A. Michelides                                 |
|          J. Phys.: Cond Matt. 22 022201 (2010)                              |
|       J. Klimes, D.R. Bowler, A. Michelides                                 |
|          Phys. Rev. B. 83, 195131 (2011)                                    |
|     and references therein.                                                 |
|                                                                             |
 -----------------------------------------------------------------------------

 POTCAR:    PAW_PBE Au 04Oct2007                  
   SHA256 =  d0044ae04e2bdce24051b198fc5c053d722a5bc6fe3c3b100514a13fc5d2db88 Au/POTCAR             
   COPYR  = (c) Copyright 04Oct2007 Georg Kresse                                                    
   COPYR  = This file is part of the software VASP. Any use, copying, and all other rights are regul
   COPYR  = If you do not have a valid VASP license, you may not use, copy or distribute this file. 
   VRHFIN =Au: s1d10                                                                                
   LEXCH  = PE                                                                                      
   EATOM  =   926.0867 eV,   68.0654 Ry                                                             
                                                                                                    
   TITEL  = PAW_PBE Au 04Oct2007                                                                    
   LULTRA =        F    use ultrasoft PP ?                                                          
   IUNSCR =        1    unscreen: 0-lin 1-nonlin 2-no                                               
   RPACOR =    2.330    partial core radius                                                         
   POMASS =  196.966; ZVAL   =   11.000    mass and valenz                                          
   RCORE  =    2.500    outmost cutoff radius                                                       
   RWIGS  =    2.840; RWIGS  =    1.503    wigner-seitz radius (au A)                               
   ENMAX  =  229.943; ENMIN  =  172.457 eV                                                          
   ICORE  =        3    local potential                                                             
   LCOR   =        T    correct aug charges                                                         
   LPAW   =        T    paw PP                                                                      
   EAUG   =  356.670                                                                                
   DEXC   =    0.000                                                                                
   RMAX   =    2.562    core radius for proj-oper                                                   
   RAUG   =    1.300    factor for augmentation sphere                                              
   RDEP   =    2.598    radius for radial grids                                                     
   RDEPT  =    2.193    core radius for aug-charge                                                  
                                                                                                    
   Atomic configuration                                                                             
   16 entries                                                                                       
     n  l   j            E        occ.                                                              
     1  0  0.50    -80748.5001   2.0000                                                             
     2  0  0.50    -14244.7466   2.0000                                                             
     2  1  1.50    -12310.9591   6.0000                                                             
     3  0  0.50     -3362.1768   2.0000                                                             
     3  1  1.50     -2801.5463   6.0000                                                             
     3  2  2.50     -2203.8206  10.0000                                                             
     4  0  0.50      -729.8168   2.0000                                                             
     4  1  1.50      -546.0527   6.0000                                                             
     4  2  2.50      -325.7302  10.0000                                                             
     4  3  3.50       -81.1472  14.0000                                                             
     5  0  0.50      -108.3201   2.0000                                                             
     5  1  1.50       -59.7479   6.0000                                                             
     5  2  2.50        -6.8783  10.0000                                                             
     6  0  0.50        -5.7602   1.0000                                                             
     6  1  1.50        -6.8029   0.0000                                                             
     5  3  2.50        -1.3606   0.0000                                                             
   Description                                                                                      
     l       E           TYP  RCUT    TYP  RCUT                                                     
     2     -6.8782861     23  2.500                                                                 
     2     -8.2388687     23  2.500                                                                 
     0     -5.7601759     23  2.500                                                                 
     0     -0.8493231     23  2.500                                                                 
     1     -2.7211652     23  2.500                                                                 
     1     27.2116520     23  2.500                                                                 
     3     -1.3605826     23  2.500                                                                 
  local pseudopotential read in
  partial core-charges read in
  partial kinetic energy density read in
  atomic valenz-charges read in
  non local Contribution for L=           2  read in
    real space projection operators read in
  non local Contribution for L=           2  read in
    real space projection operators read in
  non local Contribution for L=           0  read in
    real space projection operators read in
  non local Contribution for L=           0  read in
    real space projection operators read in
  non local Contribution for L=           1  read in
    real space projection operators read in
  non local Contribution for L=           1  read in
    real space projection operators read in
    PAW grid and wavefunctions read in
 
   number of l-projection  operators is LMAX  =           6
   number of lm-projection operators is LMMAX =          18
 
 POTCAR:    PAW_PBE O 08Apr2002                   
   SHA256 =  818f92134a0a090dccd8ba1447fa70422a3b330e708bb4f08108d8ae51209ddf O/POTCAR              
   COPYR  = (c) Copyright 08Apr2002 Georg Kresse                                                    
   COPYR  = This file is part of the software VASP. Any use, copying, and all other rights are regul
   COPYR  = If you do not have a valid VASP license, you may not use, copy or distribute this file. 
   VRHFIN =O: s2p4                                                                                  
   LEXCH  = PE                                                                                      
   EATOM  =   432.3788 eV,   31.7789 Ry                                                             
                                                                                                    
   TITEL  = PAW_PBE O 08Apr2002                                                                     
   LULTRA =        F    use ultrasoft PP ?                                                          
   IUNSCR =        1    unscreen: 0-lin 1-nonlin 2-no                                               
   RPACOR =    1.200    partial core radius                                                         
   POMASS =   16.000; ZVAL   =    6.000    mass and valenz                                          
   RCORE  =    1.520    outmost cutoff radius                                                       
   RWIGS  =    1.550; RWIGS  =    0.820    wigner-seitz radius (au A)                               
   ENMAX  =  400.000; ENMIN  =  300.000 eV                                                          
   ICORE  =        2    local potential                                                             
   LCOR   =        T    correct aug charges                                                         
   LPAW   =        T    paw PP                                                                      
   EAUG   =  605.392                                                                                
   DEXC   =    0.000                                                                                
   RMAX   =    1.553    core radius for proj-oper                                                   
   RAUG   =    1.300    factor for augmentation sphere                                              
   RDEP   =    1.550    radius for radial grids                                                     
   RDEPT  =    1.329    core radius for aug-charge                                                  
                                                                                                    
   Atomic configuration                                                                             
    4 entries                                                                                       
     n  l   j            E        occ.                                                              
     1  0  0.50      -514.6923   2.0000                                                             
     2  0  0.50       -23.9615   2.0000                                                             
     2  1  0.50        -9.0305   4.0000                                                             
     3  2  1.50        -9.5241   0.0000                                                             
   Description                                                                                      
     l       E           TYP  RCUT    TYP  RCUT                                                     
     0    -23.9615318     23  1.200                                                                 
     0     -9.5240782     23  1.200                                                                 
     1     -9.0304911     23  1.520                                                                 
     1      8.1634956     23  1.520                                                                 
     2     -9.5240782      7  1.500                                                                 
  local pseudopotential read in
  partial core-charges read in
  partial kinetic energy density read in
  kinetic energy density of atom read in
  atomic valenz-charges read in
  non local Contribution for L=           0  read in
    real space projection operators read in
  non local Contribution for L=           0  read in
    real space projection operators read in
  non local Contribution for L=           1  read in
    real space projection operators read in
  non local Contribution for L=           1  read in
    real space projection operators read in
    PAW grid and wavefunctions read in
 
   number of l-projection  operators is LMAX  =           4
   number of lm-projection operators is LMMAX =           8
 
 POTCAR:    PAW_PBE Sr_sv 07Sep2000               
   SHA256 =  a8389d3481648516ee67182ee030b298d280b37e29cbbf2d8595f040d757c710 Sr_sv/POTCAR          
   COPYR  = (c) Copyright 07Sep2000 Georg Kresse                                                    
   COPYR  = This file is part of the software VASP. Any use, copying, and all other rights are regul
   COPYR  = If you do not have a valid VASP license, you may not use, copy or distribute this file. 
   VRHFIN =Sr: 4s4p5s                                                                               
   LEXCH  = PE                                                                                      
   EATOM  =   843.0319 eV,   61.9611 Ry                                                             
                                                                                                    
   TITEL  = PAW_PBE Sr_sv 07Sep2000                                                                 
   LULTRA =        F    use ultrasoft PP ?                                                          
   IUNSCR =        1    unscreen: 0-lin 1-nonlin 2-no                                               
   RPACOR =    2.200    partial core radius                                                         
   POMASS =   87.620; ZVAL   =   10.000    mass and valenz                                          
   RCORE  =    2.500    outmost cutoff radius                                                       
   RWIGS  =    4.040; RWIGS  =    2.138    wigner-seitz radius (au A)                               
   ENMAX  =  229.353; ENMIN  =  172.014 eV                                                          
   RCLOC  =    2.201    cutoff for local pot                                                        
   LCOR   =        T    correct aug charges                                                         
   LPAW   =        T    paw PP                                                                      
   EAUG   =  366.804                                                                                
   DEXC   =    0.000                                                                                
   RMAX   =    2.547    core radius for proj-oper                                                   
   RAUG   =    1.300    factor for augmentation sphere                                              
   RDEP   =    2.562    radius for radial grids                                                     
   RDEPT  =    2.128    core radius for aug-charge                                                  
                                                                                                    
   Atomic configuration                                                                             
   10 entries                                                                                       
     n  l   j            E        occ.                                                              
     1  0  0.50    -15934.8930   2.0000                                                             
     2  0  0.50     -2157.6250   2.0000                                                             
     2  1  1.50     -1917.0034   6.0000                                                             
     3  0  0.50      -333.7288   2.0000                                                             
     3  1  1.50      -256.0992   6.0000                                                             
     3  2  2.50      -127.9971  10.0000                                                             
     4  0  0.50       -40.8953   2.0000                                                             
     5  0  0.50        -3.5257   1.9990                                                             
     4  1  1.50       -22.8179   6.0000                                                             
     4  2  1.50        -1.2815   0.0010                                                             
   Description                                                                                      
     l       E           TYP  RCUT    TYP  RCUT                                                     
     0    -40.8953213     23  2.480                                                                 
     0     -3.5257161     23  2.480                                                                 
     1    -22.8178632     23  2.500                                                                 
     1    -24.1784458     23  2.500                                                                 
     2     -1.2814598     23  2.500                                                                 
     2      0.2279365     23  2.500                                                                 
  local pseudopotential read in
  partial core-charges read in
  partial kinetic energy density read in
  atomic valenz-charges read in
  non local Contribution for L=           0  read in
    real space projection operators read in
  non local Contribution for L=           0  read in
    real space projection operators read in
  non local Contribution for L=           1  read in
    real space projection operators read in
  non local Contribution for L=           1  read in
    real space projection operators read in
  non local Contribution for L=           2  read in
    real space projection operators read in
  non local Contribution for L=           2  read in
    real space projection operators read in
    PAW grid and wavefunctions read in
 
   number of l-projection  operators is LMAX  =           6
   number of lm-projection operators is LMMAX =          18
 
 POTCAR:    PAW_PBE Ti_sv 26Sep2005               
   SHA256 =  4d747badb5a5ea28d858fbac70885b3f8929d6fd9e5b0dbe1ecb9878dc164da1 Ti_sv/POTCAR          
   COPYR  = (c) Copyright 26Sep2005 Georg Kresse                                                    
   COPYR  = This file is part of the software VASP. Any use, copying, and all other rights are regul
   COPYR  = If you do not have a valid VASP license, you may not use, copy or distribute this file. 
   VRHFIN =Ti: 3p4s3d                                                                               
   LEXCH  = PE                                                                                      
   EATOM  =  1588.0892 eV,  116.7213 Ry                                                             
                                                                                                    
   TITEL  = PAW_PBE Ti_sv 26Sep2005                                                                 
   LULTRA =        F    use ultrasoft PP ?                                                          
   IUNSCR =        1    unscreen: 0-lin 1-nonlin 2-no                                               
   RPACOR =    2.000    partial core radius                                                         
   POMASS =   47.880; ZVAL   =   12.000    mass and valenz                                          
   RCORE  =    2.300    outmost cutoff radius                                                       
   RWIGS  =    2.300; RWIGS  =    1.217    wigner-seitz radius (au A)                               
   ENMAX  =  274.610; ENMIN  =  205.957 eV                                                          
   ICORE  =        3    local potential                                                             
   LCOR   =        T    correct aug charges                                                         
   LPAW   =        T    paw PP                                                                      
   EAUG   =  482.848                                                                                
   RMAX   =    2.348    core radius for proj-oper                                                   
   RAUG   =    1.300    factor for augmentation sphere                                              
   RDEP   =    2.381    radius for radial grids                                                     
   RDEPT  =    1.930    core radius for aug-charge                                                  
                                                                                                    
   Atomic configuration                                                                             
    8 entries                                                                                       
     n  l   j            E        occ.                                                              
     1  0  0.50     -4865.3608   2.0000                                                             
     2  0  0.50      -533.1368   2.0000                                                             
     2  1  1.50      -440.5031   6.0000                                                             
     3  0  0.50       -59.3186   2.0000                                                             
     4  0  0.50        -3.7291   1.0000                                                             
     3  1  1.50       -35.7012   6.0000                                                             
     3  2  2.50        -1.9157   3.0000                                                             
     4  3  2.50        -1.3606   0.0000                                                             
   Description                                                                                      
     l       E           TYP  RCUT    TYP  RCUT                                                     
     0    -59.3185931     23  1.800                                                                 
     0     -3.7290822     23  2.300                                                                 
     1    -35.7012045     23  2.300                                                                 
     1     -1.3605826     23  2.300                                                                 
     2     -1.9156920     23  2.300                                                                 
     2     -0.0236318     23  2.300                                                                 
     3     -1.3605826     23  2.300                                                                 
  local pseudopotential read in
  partial core-charges read in
  partial kinetic energy density read in
  atomic valenz-charges read in
  non local Contribution for L=           0  read in
    real space projection operators read in
  non local Contribution for L=           0  read in
    real space projection operators read in
  non local Contribution for L=           1  read in
    real space projection operators read in
  non local Contribution for L=           1  read in
    real space projection operators read in
  non local Contribution for L=           2  read in
    real space projection operators read in
  non local Contribution for L=           2  read in
    real space projection operators read in
    PAW grid and wavefunctions read in
 
   number of l-projection  operators is LMAX  =           6
   number of lm-projection operators is LMMAX =          18
 
 POTCAR:    PAW_PBE H 15Jun2001                   
   SHA256 =  030f79b5d3ab3cf0e668861823c8fb652ff669f3e15e46930bd03bfd63a607b6 H/POTCAR              
   COPYR  = (c) Copyright 15Jun2001 Georg Kresse                                                    
   COPYR  = This file is part of the software VASP. Any use, copying, and all other rights are regul
   COPYR  = If you do not have a valid VASP license, you may not use, copy or distribute this file. 
   VRHFIN =H: ultrasoft test                                                                        
   LEXCH  = PE                                                                                      
   EATOM  =    12.4884 eV,    0.9179 Ry                                                             
                                                                                                    
   TITEL  = PAW_PBE H 15Jun2001                                                                     
   LULTRA =        F    use ultrasoft PP ?                                                          
   IUNSCR =        0    unscreen: 0-lin 1-nonlin 2-no                                               
   RPACOR =    0.000    partial core radius                                                         
   POMASS =    1.000; ZVAL   =    1.000    mass and valenz                                          
   RCORE  =    1.100    outmost cutoff radius                                                       
   RWIGS  =    0.700; RWIGS  =    0.370    wigner-seitz radius (au A)                               
   ENMAX  =  250.000; ENMIN  =  200.000 eV                                                          
   RCLOC  =    0.701    cutoff for local pot                                                        
   LCOR   =        T    correct aug charges                                                         
   LPAW   =        T    paw PP                                                                      
   EAUG   =  400.000                                                                                
   RMAX   =    1.123    core radius for proj-oper                                                   
   RAUG   =    1.200    factor for augmentation sphere                                              
   RDEP   =    1.112    radius for radial grids                                                     
   RDEPT  =    0.926    core radius for aug-charge                                                  
                                                                                                    
   Atomic configuration                                                                             
    2 entries                                                                                       
     n  l   j            E        occ.                                                              
     1  0  0.50        -6.4927   1.0000                                                             
     2  1  0.50        -3.4015   0.0000                                                             
   Description                                                                                      
     l       E           TYP  RCUT    TYP  RCUT                                                     
     0     -6.4927494     23  1.100                                                                 
     0      6.8029130     23  1.100                                                                 
     1     -4.0817478     23  1.100                                                                 
  local pseudopotential read in
  atomic valenz-charges read in
  non local Contribution for L=           0  read in
    real space projection operators read in
  non local Contribution for L=           0  read in
    real space projection operators read in
  non local Contribution for L=           1  read in
    real space projection operators read in
    PAW grid and wavefunctions read in
 
   number of l-projection  operators is LMAX  =           3
   number of lm-projection operators is LMMAX =           5
 
 Optimization of the real space projectors (new method)

 maximal supplied QI-value         = 15.12
 optimisation between [QCUT,QGAM] = [ 11.34, 22.83] = [ 36.00,145.93] Ry 
 Optimized for a Real-space Cutoff    1.39 Angstroem

   l    n(q)    QCUT    max X(q) W(low)/X(q) W(high)/X(q)  e(spline) 
   2      9    11.338    60.898    0.39E-03    0.42E-03    0.21E-06
   2      9    11.338    58.894    0.40E-03    0.42E-03    0.22E-06
   0      9    11.338   109.617    0.13E-03    0.20E-04    0.13E-06
   0      9    11.338    75.026    0.13E-03    0.20E-04    0.13E-06
   1      9    11.338    16.344    0.33E-04    0.24E-03    0.18E-06
   1      9    11.338    10.160    0.26E-04    0.19E-03    0.15E-06
 Optimization of the real space projectors (new method)

 maximal supplied QI-value         = 24.76
 optimisation between [QCUT,QGAM] = [ 11.39, 22.77] = [ 36.31,145.25] Ry 
 Optimized for a Real-space Cutoff    1.00 Angstroem

   l    n(q)    QCUT    max X(q) W(low)/X(q) W(high)/X(q)  e(spline) 
   0      7    11.387    20.381    0.39E-03    0.13E-02    0.15E-06
   0      7    11.387    15.268    0.42E-03    0.14E-02    0.17E-06
   1      6    11.387     5.964    0.41E-03    0.11E-02    0.17E-06
   1      6    11.387     5.382    0.39E-03    0.87E-03    0.15E-06
 Optimization of the real space projectors (new method)

 maximal supplied QI-value         = 15.12
 optimisation between [QCUT,QGAM] = [ 11.34, 22.83] = [ 36.00,145.93] Ry 
 Optimized for a Real-space Cutoff    1.56 Angstroem

   l    n(q)    QCUT    max X(q) W(low)/X(q) W(high)/X(q)  e(spline) 
   0     11    11.338    11.565    0.26E-04    0.80E-05    0.70E-07
   0     11    11.338    10.214    0.41E-04    0.15E-04    0.15E-06
   1     10    11.338   189.983    0.18E-03    0.52E-04    0.42E-06
   1     10    11.338   193.105    0.19E-03    0.52E-04    0.42E-06
   2     10    11.338   115.941    0.22E-03    0.42E-03    0.43E-06
   2     10    11.338    76.444    0.21E-03    0.41E-03    0.42E-06
 Optimization of the real space projectors (new method)

 maximal supplied QI-value         = 16.25
 optimisation between [QCUT,QGAM] = [ 11.38, 22.75] = [ 36.24,144.96] Ry 
 Optimized for a Real-space Cutoff    1.27 Angstroem

   l    n(q)    QCUT    max X(q) W(low)/X(q) W(high)/X(q)  e(spline) 
   0      9    11.376    12.277    0.53E-04    0.25E-04    0.25E-07
   0      9    11.376    11.419    0.89E-04    0.67E-05    0.35E-07
   1      8    11.376     4.010    0.13E-03    0.11E-03    0.29E-07
   1      8    11.376     6.182    0.94E-04    0.19E-03    0.11E-06
   2      8    11.376    47.177    0.13E-03    0.88E-03    0.24E-06
   2      8    11.376    42.437    0.13E-03    0.86E-03    0.23E-06
 Optimization of the real space projectors (new method)

 maximal supplied QI-value         = 34.20
 optimisation between [QCUT,QGAM] = [ 11.29, 22.57] = [ 35.68,142.71] Ry 
 Optimized for a Real-space Cutoff    1.16 Angstroem

   l    n(q)    QCUT    max X(q) W(low)/X(q) W(high)/X(q)  e(spline) 
   0      8    11.287    19.460    0.40E-03    0.73E-03    0.16E-06
   0      8    11.287    12.209    0.38E-03    0.70E-03    0.15E-06
   1      7    11.287     4.655    0.22E-03    0.25E-04    0.22E-06
 -----------------------------------------------------------------------------
|                                                                             |
|               ----> ADVICE to this user running VASP <----                  |
|                                                                             |
|     You enforced a specific xc type in the INCAR file but a different       |
|     type was found in the POTCAR file.                                      |
|     I HOPE YOU KNOW WHAT YOU ARE DOING!                                     |
|                                                                             |
 -----------------------------------------------------------------------------

  PAW_PBE Au 04Oct2007                  :
 energy of atom  1       EATOM= -926.0867
 kinetic energy error for atom=    0.0042 (will be added to EATOM!!)
  PAW_PBE O 08Apr2002                   :
 energy of atom  2       EATOM= -432.3788
 kinetic energy error for atom=    0.0224 (will be added to EATOM!!)
  PAW_PBE Sr_sv 07Sep2000               :
 energy of atom  3       EATOM= -843.0319
 kinetic energy error for atom=    0.0012 (will be added to EATOM!!)
  PAW_PBE Ti_sv 26Sep2005               :
 energy of atom  4       EATOM=-1588.0892
 kinetic energy error for atom=    0.0046 (will be added to EATOM!!)
  PAW_PBE H 15Jun2001                   :
 energy of atom  5       EATOM=  -12.4884
 kinetic energy error for atom=    0.0020 (will be added to EATOM!!)
 
 
 POSCAR: Au O  Sr Ti H
  positions in cartesian coordinates
  No initial velocities read in
 exchange correlation table for  LEXCH =       17
   RHO(1)=    0.500       N(1)  =     2000
   RHO(2)=  100.500       N(2)  =     4000

 VTST: version 4.1, (05/19/21)

 CHAIN: initializing optimizer
 
 OPT: Using VASP Dynamics algorithm
 CHAIN: Read ICHAIN            0
 
 POSCAR: Au O  Sr Ti H
  positions in cartesian coordinates
  No initial velocities read in
 


--------------------------------------------------------------------------------------------------------


 ion  position               nearest neighbor table
   1  0.716  0.526  0.753-  15 2.71  16 2.72  14 2.79  44 2.83   2 2.84  29 2.96  46 2.98
   2  0.622  0.569  0.704- 264 2.09  15 2.82   1 2.84  48 2.86  46 2.88  12 2.92  16 2.92  36 3.06
                            11 3.28   5 3.48 380 3.71
   3  0.720  0.259  0.692- 294 2.07 253 2.08  32 2.66  43 2.77  27 2.83 401 3.05 370 4.05 371 4.06

   4  0.259  0.756  0.703- 459 1.68 266 2.01 310 2.12   9 2.89  23 3.39  50 3.57
   5  0.512  0.604  0.777-  26 2.68  48 2.75  13 2.83  12 2.91  39 2.93  47 2.93  16 3.02   6 3.21
                            49 3.36   2 3.48  31 3.50
   6  0.579  0.727  0.794-  36 2.73  18 2.73  17 2.79  47 2.82  13 3.02  48 3.20   5 3.21  16 3.44

   7  0.550  0.384  0.829-  10 2.76  33 2.79  29 2.85  20 2.87  34 2.97  31 2.98  12 3.04  41 3.37

   8  0.242  0.466  0.709- 309 2.10  19 2.69  45 2.79  24 2.86  40 2.92  35 3.04 378 4.15
   9  0.280  0.663  0.768- 459 1.81  30 2.77  50 2.79  24 2.80  45 2.81   4 2.89
  10  0.603  0.290  0.787-   7 2.76  32 2.79  41 2.80  43 2.80  27 2.80  25 3.07  34 3.24
  11  0.514  0.483  0.678- 279 2.12 247 2.17  26 2.69  12 2.79  34 2.89  49 2.90 389 3.14   2 3.28
                            46 3.33 375 3.55  37 3.56 386 4.05
  12  0.563  0.486  0.763-  11 2.79  34 2.79  49 2.84  29 2.85  31 2.90   5 2.91   2 2.92  46 2.99
                            16 2.99   7 3.04
  13  0.463  0.695  0.830-  50 2.80   5 2.83  47 2.84  30 2.86  39 2.89  18 2.94   6 3.02
  14  0.764  0.432  0.705- 254 2.01  44 2.72   1 2.79  46 2.79  43 2.87 363 3.72 370 4.21
  15  0.731  0.615  0.693- 292 2.09 250 2.11  36 2.66   1 2.71   2 2.82  28 3.22 380 3.39 365 3.74

  16  0.634  0.585  0.800-   1 2.72  47 2.76  36 2.78  31 2.82   2 2.92  12 2.99   5 3.02  29 3.28
                             6 3.44
  17  0.596  0.785  0.713- 257 2.09  28 2.78   6 2.79  18 2.92  48 2.95  36 3.08 379 4.17 384 4.35

  18  0.485  0.775  0.755-   6 2.73  23 2.79  50 2.85  42 2.89  17 2.92  13 2.94  48 3.22
  19  0.350  0.499  0.697- 291 2.11   8 2.69  37 2.87  49 2.89  24 2.91  40 2.93  45 2.96  26 3.01
                           368 4.17 369 4.24
  20  0.430  0.371  0.816-  33 2.77  21 2.78   7 2.87  41 2.92  49 2.92  40 3.00  38 3.03  34 3.23

  21  0.372  0.299  0.756-  37 2.76  35 2.77  20 2.78  40 2.83  41 2.87  22 2.89
  22  0.442  0.227  0.697- 302 2.02 289 2.14  41 2.74  25 2.78  21 2.89  37 3.60 376 3.85 367 4.34

  23  0.391  0.813  0.706- 290 2.06  42 2.72  50 2.78  18 2.79   4 3.39 372 3.67 384 4.13
  24  0.291  0.539  0.777-   9 2.80  45 2.80  30 2.81  38 2.83   8 2.86  40 2.91  19 2.91
  25  0.557  0.210  0.712- 311 2.13  22 2.78  41 2.84  27 2.86  32 2.87  10 3.07 376 3.96
  26  0.453  0.579  0.703- 291 2.11   5 2.68  11 2.69  42 2.71  49 2.87  48 2.88  19 3.01 386 3.63

  27  0.616  0.321  0.697- 263 2.04  43 2.76  10 2.80   3 2.83  46 2.85  25 2.86  34 2.86  32 3.49
                           370 3.54 375 4.23
  28  0.706  0.757  0.688- 293 2.04 250 2.05  36 2.63  17 2.78 400 3.13  15 3.22 379 3.81 380 4.20

  29  0.656  0.440  0.812-  12 2.85  44 2.85   7 2.85  31 2.88  43 2.89   1 2.96  16 3.28  46 3.48

  30  0.369  0.617  0.818-   9 2.77  39 2.78  24 2.81  38 2.85  13 2.86  50 2.94
  31  0.572  0.510  0.858-  33 2.77  16 2.82  29 2.88  12 2.90  47 2.90  39 2.95   7 2.98   5 3.50

  32  0.666  0.194  0.753-   3 2.66  10 2.79  25 2.87  27 3.49  43 3.50
  33  0.473  0.450  0.879-  31 2.77  20 2.77   7 2.79  39 2.79  38 2.82
  34  0.518  0.377  0.733-  12 2.79  41 2.81  27 2.86  49 2.87  11 2.89   7 2.97  37 3.09  20 3.23
                            10 3.24  46 3.58 375 4.18
  35  0.284  0.337  0.702- 267 2.06  21 2.77  40 2.83  37 2.93   8 3.04 369 3.53 378 4.11
  36  0.669  0.681  0.749-  28 2.63  15 2.66   6 2.73  16 2.78   2 3.06  17 3.08  48 3.33
  37  0.399  0.382  0.690- 303 2.03 289 2.13  21 2.76  19 2.87  35 2.93  40 3.04  49 3.06  34 3.09
                           369 3.40  11 3.56  22 3.60 375 3.76
  38  0.375  0.491  0.834-  33 2.82  24 2.83  49 2.84  40 2.84  30 2.85  39 2.89  20 3.03
  39  0.462  0.573  0.863-  30 2.78  33 2.79  47 2.83  13 2.89  38 2.89   5 2.93  31 2.95
  40  0.325  0.414  0.770-  35 2.83  21 2.83  38 2.84  24 2.91   8 2.92  19 2.93  20 3.00  37 3.04
                            49 3.12
  41  0.488  0.269  0.775-  22 2.74  10 2.80  34 2.81  25 2.84  21 2.87  20 2.92   7 3.37
  42  0.420  0.695  0.699- 256 2.03  26 2.71  23 2.72  50 2.77  18 2.89  48 2.97 368 4.03 386 4.05

  43  0.702  0.346  0.756-  27 2.76   3 2.77  10 2.80  44 2.81  14 2.87  29 2.89  46 3.09  32 3.50

  44  0.774  0.431  0.795-  14 2.72  43 2.81   1 2.83  29 2.85
  45  0.258  0.588  0.695- 265 2.04 310 2.10   8 2.79  24 2.80   9 2.81  19 2.96 368 3.60 373 3.72

  46  0.648  0.444  0.697- 279 2.18  14 2.79  27 2.85   2 2.88   1 2.98  12 2.99  43 3.09  11 3.33
                            29 3.48 370 3.50  34 3.58
  47  0.564  0.640  0.861-  16 2.76   6 2.82  39 2.83  13 2.84  31 2.90   5 2.93
  48  0.542  0.666  0.701- 280 2.11   5 2.75   2 2.86  26 2.88  17 2.95  42 2.97   6 3.20  18 3.22
                            36 3.33 386 3.48
  49  0.444  0.474  0.757-  38 2.84  12 2.84  26 2.87  34 2.87  19 2.89  11 2.90  20 2.92  37 3.06
                            40 3.12   5 3.36
  50  0.374  0.737  0.778-  42 2.77  23 2.78   9 2.79  13 2.80  18 2.85  30 2.94   4 3.57
  51  0.250  0.188  0.454- 448 1.97 418 2.13 319 2.74 360 2.81 342 2.81 327 2.85
  52  0.749  0.938  0.455- 417 1.95 444 2.00 350 2.82 339 2.84 322 2.84 332 2.88
  53  0.749  0.689  0.457- 432 1.98 446 2.04 325 2.77 362 2.84 348 2.85 316 2.88
  54  0.749  0.438  0.456- 422 2.00 458 2.01 323 2.71 347 2.82 359 2.84 349 2.84
  55  0.750  0.190  0.456- 445 1.98 423 2.11 324 2.75 335 2.80 358 2.84 346 2.85
  56  0.418  0.936  0.454- 424 1.99 440 2.01 357 2.76 345 2.79 329 2.87 320 2.93
  57  0.417  0.685  0.455- 414 1.91 443 2.04 356 2.77 344 2.78 321 2.83 331 2.90
  58  0.416  0.435  0.454- 415 1.97 442 2.01 343 2.77 355 2.77 333 2.83 318 2.84
  59  0.084  0.687  0.453- 439 1.97 413 2.09 352 2.76 340 2.79 330 2.81 336 2.93
  60  0.084  0.937  0.454- 436 1.99 412 2.10 353 2.77 341 2.80 326 2.88 338 2.91
  61  0.083  0.437  0.453- 438 1.97 421 2.11 361 2.76 351 2.78 328 2.79 317 2.92
  62  0.084  0.187  0.453- 437 1.98 433 2.12 360 2.76 385 2.78 327 2.87 337 2.89
  63  0.917  0.812  0.454- 434 1.98 411 2.12 362 2.75 339 2.80 341 2.81 336 2.87
  64  0.916  0.562  0.454- 435 1.98 410 2.11 349 2.78 316 2.79 340 2.80 317 2.89
  65  0.251  0.439  0.455- 449 1.98 420 2.06 318 2.70 343 2.81 328 2.85 351 2.86
  66  0.916  0.062  0.454- 455 1.98 430 2.11 358 2.80 385 2.81 332 2.85 338 2.89
  67  0.916  0.312  0.454- 456 1.98 429 2.09 359 2.79 361 2.81 335 2.81 337 2.89
  68  0.417  0.187  0.454- 441 1.98 416 2.07 354 2.78 342 2.79 334 2.81 319 2.88
  69  0.252  0.688  0.456- 419 1.99 450 2.02 321 2.76 344 2.79 352 2.87 330 2.88
  70  0.917  0.937  0.453- 455 1.98 411 2.11 341 2.77 339 2.78 332 2.90 338 2.91
  71  0.583  0.189  0.455- 452 1.98 426 2.09 334 2.72 324 2.79 354 2.83 346 2.84
  72  0.000  0.125  0.498- 430 1.97 433 1.98 385 2.74 337 2.79 338 2.80
  73  0.584  0.810  0.456- 454 1.98 431 2.10 325 2.72 331 2.75 350 2.84 357 2.86
  74  1.000  0.373  0.498- 429 1.94 421 1.95 361 2.74 337 2.77 317 2.86
  75  0.000  0.627  0.498- 410 1.94 413 1.94 340 2.73 336 2.78 317 2.83
  76  0.334  0.126  0.499- 416 1.95 418 2.01 319 2.74 342 2.74 320 2.79 367 3.46
  77  0.000  0.875  0.500- 412 1.96 411 1.98 336 2.78 341 2.78 338 2.80
  78  0.334  0.874  0.499- 424 1.97 425 2.00 321 2.75 345 2.75 320 2.84 372 3.14
  79  0.666  0.126  0.499- 426 1.96 423 2.01 324 2.73 346 2.77 322 2.81 371 3.38
  80  0.335  0.625  0.504- 414 1.93 419 2.06 368 2.76 321 2.81 318 2.82 344 2.90
  81  0.334  0.378  0.503- 415 1.94 420 2.08 318 2.70 369 2.70 343 2.88 319 2.91
  82  0.665  0.379  0.503- 428 1.94 422 2.06 323 2.70 370 2.74 347 2.89 324 2.92
  83  0.915  0.687  0.453- 434 1.98 410 2.10 316 2.75 340 2.80 362 2.80 336 2.94
  84  0.916  0.437  0.454- 435 1.98 429 2.10 359 2.77 349 2.78 361 2.80 317 2.92
  85  0.916  0.187  0.453- 456 1.98 430 2.12 358 2.76 385 2.79 335 2.79 337 2.91
  86  0.583  0.936  0.454- 451 2.00 431 2.06 357 2.77 350 2.79 329 2.86 322 2.89
  87  0.583  0.686  0.455- 427 1.91 454 2.02 356 2.78 348 2.80 325 2.83 331 2.85
  88  0.583  0.439  0.456- 453 2.00 428 2.02 333 2.70 323 2.78 355 2.84 347 2.86
  89  0.250  0.936  0.454- 425 1.93 447 2.00 353 2.78 345 2.79 320 2.90 326 2.92
  90  0.665  0.626  0.503- 427 1.93 432 2.06 380 2.71 325 2.81 323 2.82 348 2.88
  91  0.584  0.563  0.455- 427 1.99 453 2.01 333 2.77 348 2.79 323 2.80 356 2.83
  92  0.583  0.062  0.455- 451 2.00 426 2.03 354 2.80 346 2.82 322 2.85 329 2.85
  93  0.917  0.687  0.361- 434 1.97 340 2.79 316 2.79
  94  0.917  0.437  0.361- 435 1.97 361 2.79 359 2.79
  95  0.917  0.188  0.361- 456 1.97 385 2.79 358 2.79
  96  0.583  0.938  0.361- 451 1.97 357 2.79 350 2.79
  97  0.583  0.687  0.361- 454 1.97 356 2.79 348 2.79
  98  0.583  0.437  0.361- 453 1.97 355 2.79 347 2.79
  99  0.583  0.188  0.361- 452 1.97 354 2.79 346 2.79
 100  0.250  0.938  0.361- 447 1.97 353 2.79 345 2.79
 101  0.917  0.938  0.361- 455 1.97 341 2.79 339 2.79
 102  0.250  0.687  0.361- 450 1.97 352 2.79 344 2.79
 103  0.250  0.188  0.361- 448 1.97 360 2.79 342 2.79
 104  0.750  0.938  0.361- 444 1.97 350 2.79 339 2.79
 105  0.750  0.687  0.361- 446 1.97 348 2.79 316 2.79
 106  0.750  0.437  0.361- 458 1.97 347 2.79 359 2.79
 107  0.750  0.188  0.361- 445 1.97 346 2.79 358 2.79
 108  0.417  0.938  0.361- 440 1.97 345 2.79 357 2.79
 109  0.417  0.687  0.361- 443 1.97 344 2.79 356 2.79
 110  0.417  0.437  0.361- 442 1.97 343 2.79 355 2.79
 111  0.250  0.437  0.361- 449 1.97 351 2.79 343 2.79
 112  0.083  0.063  0.361- 436 1.97 385 2.79 360 2.79
 113  0.083  0.312  0.361- 437 1.97 361 2.79 351 2.79
 114  0.083  0.563  0.361- 438 1.97 352 2.79 340 2.79
 115  0.917  0.312  0.361- 456 1.97 361 2.79 359 2.79
 116  0.917  0.063  0.361- 455 1.97 385 2.79 358 2.79
 117  0.583  0.812  0.361- 454 1.97 357 2.79 350 2.79
 118  0.583  0.563  0.361- 453 1.97 356 2.79 348 2.79
 119  0.583  0.312  0.361- 452 1.97 355 2.79 347 2.79
 120  0.583  0.063  0.361- 451 1.97 354 2.79 346 2.79
 121  0.250  0.812  0.361- 450 1.97 353 2.79 345 2.79
 122  0.250  0.563  0.361- 449 1.97 352 2.79 344 2.79
 123  0.250  0.312  0.361- 448 1.97 351 2.79 343 2.79
 124  0.250  0.063  0.361- 447 1.97 360 2.79 342 2.79
 125  0.750  0.812  0.361- 446 1.97 350 2.79 339 2.79
 126  0.750  0.563  0.361- 458 1.97 348 2.79 316 2.79
 127  0.750  0.312  0.361- 445 1.97 347 2.79 359 2.79
 128  0.750  0.063  0.361- 444 1.97 346 2.79 358 2.79
 129  0.417  0.812  0.361- 443 1.97 345 2.79 357 2.79
 130  0.417  0.563  0.361- 442 1.97 344 2.79 356 2.79
 131  0.417  0.312  0.361- 441 1.97 343 2.79 355 2.79
 132  0.417  0.063  0.361- 440 1.97 342 2.79 354 2.79
 133  0.083  0.812  0.361- 439 1.97 353 2.79 341 2.79
 134  0.417  0.188  0.361- 441 1.97 342 2.79 354 2.79
 135  0.083  0.938  0.361- 436 1.97 353 2.79 341 2.79
 136  0.083  0.687  0.361- 439 1.97 352 2.79 340 2.79
 137  0.083  0.437  0.361- 438 1.97 361 2.79 351 2.79
 138  0.833  0.500  0.407- 458 1.97 435 1.97 316 2.79 359 2.79 349 2.88
 139  0.833  0.750  0.407- 446 1.97 434 1.97 339 2.79 316 2.79 362 2.87
 140  0.084  0.062  0.454- 436 1.98 433 2.11 360 2.80 385 2.81 326 2.84 338 2.88
 141  0.083  0.312  0.454- 437 1.98 421 2.10 351 2.80 361 2.80 337 2.86 327 2.88
 142  0.084  0.562  0.454- 438 1.98 413 2.11 328 2.75 352 2.79 340 2.81 317 2.90
 143  0.084  0.812  0.454- 439 1.98 412 2.11 330 2.77 353 2.80 341 2.81 336 2.87
 144  0.417  0.062  0.455- 416 1.96 440 2.00 354 2.83 342 2.83 320 2.83 329 2.84
 145  0.416  0.311  0.457- 415 1.91 441 2.04 334 2.81 319 2.82 343 2.85 355 2.88
 146  0.416  0.559  0.458- 414 1.97 442 2.02 318 2.73 333 2.73 344 2.88 356 2.90
 147  0.417  0.810  0.455- 443 1.97 424 2.09 321 2.72 331 2.78 345 2.84 357 2.85
 148  0.750  0.064  0.453- 444 1.99 423 2.02 346 2.76 358 2.78 322 2.90 332 2.93
 149  0.747  0.314  0.455- 422 2.00 445 2.02 347 2.75 324 2.81 359 2.83 335 2.94
 150  0.748  0.564  0.454- 432 1.99 458 2.00 348 2.74 323 2.76 316 2.80 349 2.93
 151  0.749  0.813  0.453- 446 1.97 417 2.09 350 2.76 339 2.79 325 2.81 362 2.89
 152  0.251  0.062  0.454- 447 1.98 418 2.10 342 2.80 360 2.81 320 2.84 326 2.88
 153  0.915  0.313  0.547- 429 1.84 409 2.21 335 2.71 337 2.75 363 2.86 381 3.31
 154  0.252  0.314  0.454- 420 1.96 448 2.01 343 2.74 319 2.78 351 2.82 327 2.96
 155  0.252  0.565  0.453- 419 2.00 449 2.01 344 2.73 318 2.78 352 2.79 328 2.93
 156  0.250  0.811  0.455- 450 1.98 425 2.06 321 2.77 345 2.82 330 2.83 353 2.83
 157  0.833  0.250  0.407- 445 1.97 456 1.97 359 2.79 358 2.79 335 2.89
 158  0.584  0.315  0.454- 428 1.95 452 2.02 347 2.75 355 2.79 334 2.86 324 2.87
 159  0.833  0.000  0.407- 444 1.97 455 1.97 358 2.79 339 2.79 332 2.99
 160  0.500  0.500  0.407- 453 1.97 442 1.97 355 2.79 356 2.79 333 2.80
 161  0.083  0.188  0.361- 437 1.97 385 2.79 360 2.79
 162  0.000  0.000  0.407- 455 1.97 436 1.97 385 2.79 341 2.79 338 2.99
 163  0.000  0.250  0.407- 456 1.97 437 1.97 361 2.79 385 2.79 337 2.96
 164  0.000  0.500  0.407- 435 1.97 438 1.97 340 2.79 361 2.79 317 3.00
 165  0.000  0.750  0.407- 434 1.97 439 1.97 341 2.79 340 2.79 336 2.99
 166  0.333  0.000  0.407- 440 1.97 447 1.97 342 2.79 345 2.79 320 2.96
 167  0.333  0.250  0.407- 441 1.97 448 1.97 343 2.79 342 2.79 319 2.88
 168  0.333  0.500  0.407- 442 1.97 449 1.97 343 2.79 344 2.79 318 2.81
 169  0.333  0.750  0.407- 443 1.97 450 1.97 345 2.79 344 2.79 321 2.83
 170  0.667  0.000  0.407- 444 1.97 451 1.97 346 2.79 350 2.79 322 2.96
 171  0.667  0.250  0.407- 445 1.97 452 1.97 347 2.79 346 2.79 324 2.88
 172  0.667  0.500  0.407- 458 1.97 453 1.97 347 2.79 348 2.79 323 2.81
 173  0.667  0.750  0.407- 446 1.97 454 1.97 350 2.79 348 2.79 325 2.85
 174  0.167  0.000  0.407- 447 1.97 436 1.97 360 2.79 353 2.79 326 2.98
 175  0.167  0.250  0.407- 448 1.97 437 1.97 351 2.79 360 2.79 327 2.97
 176  0.167  0.500  0.407- 449 1.97 438 1.97 351 2.79 352 2.79 328 2.85
 177  0.167  0.750  0.407- 450 1.97 439 1.97 353 2.79 352 2.79 330 2.88
 178  0.500  0.000  0.407- 451 1.97 440 1.97 354 2.79 357 2.79 329 2.95
 179  0.500  0.250  0.407- 452 1.97 441 1.97 355 2.79 354 2.79 334 2.85
 180  0.500  0.750  0.407- 454 1.97 443 1.97 357 2.79 356 2.79 331 2.90
 181  0.167  0.124  0.499- 418 1.96 433 2.00 326 2.75 360 2.77 327 2.77
 182  0.918  0.063  0.548- 430 1.84 387 2.20 338 2.70 332 2.72 315 3.21 383 3.26
 183  0.168  0.873  0.500- 425 1.93 412 2.02 330 2.73 353 2.78 326 2.86 374 3.40
 184  0.252  0.188  0.547- 418 1.87 395 2.13 319 2.64 327 2.72 367 3.15 377 3.34
 185  0.749  0.934  0.548- 417 1.82 402 2.27 322 2.77 332 2.79 379 2.92 364 3.16
 186  0.752  0.680  0.553- 400 1.96 432 1.97 380 2.65 365 2.84 362 2.97 325 3.01
 187  0.752  0.435  0.549- 422 1.92 399 2.05 370 2.74 349 2.82 323 2.84 363 2.96
 188  0.423  0.444  0.545- 408 1.88 415 2.06 333 2.61 318 2.84 375 2.87 369 3.13
 189  0.422  0.688  0.547- 414 1.95 398 2.01 331 2.68 386 2.79 321 2.85 368 2.91
 190  0.748  0.184  0.551- 423 1.94 401 1.95 324 2.79 335 2.89 371 3.00 383 3.18
 191  0.416  0.937  0.546- 424 1.84 396 2.25 320 2.71 329 2.72 372 2.89 384 3.08
 192  0.084  0.938  0.546- 412 1.84 406 2.20 326 2.67 338 2.70 374 3.13 366 3.35
 193  0.416  0.191  0.546- 397 1.85 416 2.03 319 2.72 334 2.73 376 3.11 367 3.24
 194  0.086  0.690  0.545- 413 1.85 405 2.21 330 2.63 336 2.72 373 2.82
 195  0.082  0.439  0.545- 421 1.85 404 2.23 317 2.65 328 2.69 378 3.07 381 3.34
 196  0.084  0.189  0.545- 433 1.85 403 2.18 327 2.64 337 2.67 315 3.32 377 3.37
 197  0.499  0.126  0.500- 416 1.98 426 2.00 334 2.73 354 2.78 329 2.82 376 3.20
 198  1.000  0.502  0.595- 457 1.95 404 1.96 317 2.63 381 2.95 382 2.95
 199  0.000  0.753  0.592- 405 1.95 407 1.96 336 2.57 366 2.85 382 3.23
 200  0.335  0.254  0.593- 397 1.90 395 2.06 369 2.67 319 2.70 367 3.07
 201  0.334  1.000  0.592- 396 2.00 394 2.03 320 2.59 372 2.72 367 2.76
 202  1.000  0.999  0.593- 406 2.00 387 2.01 338 2.59 315 2.87 366 2.92
 203  0.001  0.250  0.591- 409 1.95 403 1.99 337 2.57 381 2.93 315 2.96
 204  0.334  0.496  0.590- 408 1.85 390 2.16 318 2.68 369 2.74 368 2.87
 205  0.334  0.741  0.591- 391 2.00 398 2.00 368 2.59 321 2.70 372 3.11
 206  0.664  0.247  0.591- 392 1.89 401 2.14 324 2.63 370 2.79 371 2.82
 207  0.666  0.000  0.592- 393 2.00 402 2.02 322 2.59 379 2.71 371 2.84
 208  0.666  0.742  0.590- 388 1.93 400 2.07 380 2.58 325 2.65 379 3.14
 209  0.667  0.495  0.591- 389 1.81 399 2.14 323 2.71 370 2.74 380 2.94
 210  0.167  0.999  0.592- 394 1.98 406 2.02 326 2.57 374 2.85 377 2.90
 211  0.168  0.249  0.593- 395 1.93 403 2.04 327 2.61 378 2.77 377 2.95
 212  0.171  0.748  0.594- 391 1.89 405 2.13 373 2.71 330 2.74 374 2.88
 213  0.248  0.436  0.549- 390 1.94 420 1.98 369 2.65 318 2.83 328 2.84 378 3.03
 214  0.166  0.503  0.588- 390 1.83 404 2.05 328 2.57 373 2.82 378 3.00
 215  0.249  0.683  0.552- 419 1.96 391 1.98 368 2.74 373 2.88 330 2.92 321 2.94
 216  0.581  0.186  0.549- 426 1.93 392 1.99 334 2.74 324 2.83 376 2.93 371 3.06
 217  0.916  0.813  0.547- 411 1.84 407 2.17 362 2.68 336 2.72 364 3.23 366 3.31
 218  0.917  0.564  0.547- 410 1.84 457 2.21 317 2.69 349 2.72 365 2.87
 219  0.581  0.560  0.549- 389 1.89 427 2.08 386 2.69 333 2.75 380 2.82 323 2.87
 220  0.586  0.815  0.551- 431 1.92 388 2.06 325 2.77 331 2.81 379 2.92 384 3.02
 221  0.583  0.312  0.546- 428 1.89 392 2.12 334 2.73 324 2.76 375 2.77 370 2.88
 222  0.583  0.063  0.547- 426 1.85 393 2.21 329 2.72 322 2.72 376 2.95 371 3.08
 223  0.253  0.813  0.550- 391 1.81 425 2.06 321 2.78 330 2.87 372 2.91 374 3.13
 224  0.252  0.559  0.543- 419 1.91 390 2.02 318 2.63 328 2.77 368 2.91 373 3.20
 225  0.249  0.314  0.546- 420 1.85 395 2.29 369 2.66 327 2.73 319 2.74 378 3.04
 226  0.251  0.063  0.547- 418 1.84 394 2.23 320 2.68 326 2.73 367 3.04 377 3.28
 227  0.748  0.808  0.546- 400 1.83 417 2.03 325 2.67 362 2.75 379 3.14 364 3.31
 228  0.746  0.558  0.544- 432 1.95 399 1.98 323 2.61 349 2.78 380 2.84 365 3.22
 229  0.414  0.812  0.548- 398 1.96 424 1.97 321 2.70 331 2.79 372 2.92 384 3.12
 230  0.748  0.060  0.545- 423 1.84 402 2.20 322 2.63 332 2.68 371 3.17 383 3.36
 231  0.748  0.312  0.548- 422 1.97 401 2.00 370 2.66 324 2.74 335 2.84 363 3.02
 232  0.416  0.319  0.553- 397 1.97 415 1.97 375 2.66 369 2.73 334 2.98 319 2.98
 233  0.420  0.565  0.555- 408 1.90 414 2.12 386 2.65 368 2.71 333 2.92 318 3.04
 234  0.416  0.065  0.547- 416 1.84 396 2.25 320 2.74 329 2.77 376 2.95 367 3.08
 235  0.086  0.813  0.547- 412 1.85 405 2.17 330 2.67 336 2.74 374 3.06 366 3.34
 236  0.083  0.564  0.546- 413 1.84 404 2.21 317 2.70 328 2.73 373 2.86
 237  0.086  0.314  0.547- 421 1.84 403 2.24 327 2.68 337 2.77 378 2.87 381 3.33
 238  0.082  0.063  0.548- 433 1.84 406 2.21 338 2.70 326 2.71 315 3.20 377 3.29
 239  0.916  0.939  0.546- 411 1.84 387 2.21 332 2.65 338 2.69 364 3.24 366 3.35
 240  0.914  0.689  0.545- 410 1.85 407 2.23 362 2.63 336 2.72 365 2.84
 241  0.583  0.938  0.546- 431 1.84 393 2.25 322 2.68 329 2.68 379 2.97 384 3.07
 242  0.917  0.189  0.545- 430 1.84 409 2.17 335 2.66 337 2.68 383 3.31 315 3.33
 243  0.916  0.438  0.546- 429 1.85 457 2.24 349 2.68 317 2.69 363 2.96 381 3.33
 244  0.576  0.436  0.552- 389 1.95 428 2.05 375 2.63 333 2.75 370 2.95 323 3.01
 245  0.580  0.686  0.547- 427 1.92 388 2.11 386 2.66 331 2.71 380 2.82 325 2.85
 246  0.251  0.937  0.545- 425 1.84 394 2.23 320 2.68 326 2.74 372 2.93 374 3.20
 247  0.497  0.504  0.609- 408 2.09  11 2.17 389 2.25 386 2.73 375 3.00 333 3.27
 248  0.499  0.253  0.590- 397 1.99 392 2.04 334 2.65 375 2.66 376 2.96
 249  0.500  0.000  0.591- 396 2.00 393 2.00 329 2.57 376 2.76 384 2.81
 250  0.754  0.693  0.657-  28 2.05  15 2.11 400 2.40 365 2.98 380 3.19
 251  0.748  0.937  0.640- 402 1.80 364 2.49 379 2.53
 252  0.253  0.187  0.641- 395 1.74 367 2.52 377 2.55
 253  0.746  0.194  0.647- 401 1.98   3 2.08 371 2.67 383 2.71
 254  0.755  0.436  0.638- 399 1.97  14 2.01 363 2.60 370 2.78
 255  0.417  0.935  0.640- 396 1.79 384 2.52 372 2.57
 256  0.421  0.676  0.633-  42 2.03 398 2.04 386 2.56 368 2.59
 257  0.591  0.810  0.646- 388 1.94  17 2.09 379 2.64 384 2.82
 258  0.916  0.062  0.642- 387 1.79 383 2.49 315 2.50
 259  0.912  0.562  0.642- 457 1.79 382 2.47 365 2.53
 260  0.915  0.312  0.639- 409 1.80 381 2.50 363 2.52
 261  0.914  0.813  0.641- 407 1.79 364 2.50 366 2.51
 262  0.582  0.066  0.640- 393 1.79 371 2.51 376 2.52
 263  0.583  0.320  0.634- 392 1.96  27 2.04 375 2.53 370 2.67
 264  0.591  0.566  0.639- 389 1.98   2 2.09 380 2.63 386 2.79
 265  0.249  0.574  0.628- 390 1.99  45 2.04 368 2.53 373 2.54
 266  0.259  0.801  0.645- 391 1.93   4 2.01 372 2.78 374 2.92
 267  0.249  0.317  0.641- 395 1.94  35 2.06 378 2.59 369 2.65
 268  0.251  0.060  0.642- 394 1.79 367 2.49 377 2.51
 269  0.917  0.563  0.361- 435 1.97 340 2.79 316 2.79
 270  0.500  0.374  0.500- 415 1.97 428 2.00 355 2.78 333 2.81 334 2.82 375 2.86
 271  0.500  0.873  0.501- 424 1.98 431 1.99 331 2.68 357 2.82 329 2.84 384 3.26
 272  0.500  0.621  0.500- 414 1.97 427 1.99 333 2.71 356 2.79 386 2.82 331 2.94
 273  0.832  0.623  0.500- 432 1.89 410 2.05 349 2.75 316 2.79 362 2.87 365 3.11
 274  0.833  0.874  0.499- 417 1.95 411 2.02 362 2.74 339 2.75 332 2.83
 275  0.832  0.373  0.500- 422 1.90 429 2.05 359 2.78 335 2.79 349 2.83 363 3.14
 276  0.833  0.125  0.500- 423 1.95 430 2.01 335 2.77 332 2.78 358 2.78
 277  0.167  0.376  0.498- 420 1.90 421 2.02 351 2.72 328 2.76 327 2.87 378 3.29
 278  0.168  0.625  0.499- 419 1.91 413 2.05 352 2.77 328 2.79 330 2.82 373 3.10
 279  0.582  0.439  0.646- 389 2.10  11 2.12  46 2.18 375 2.86 370 3.02
 280  0.580  0.686  0.639- 388 1.87  48 2.11 386 2.62 380 2.81
 281  0.917  0.187  0.641- 409 1.79 383 2.49 315 2.52
 282  0.582  0.935  0.639- 393 1.80 384 2.49 379 2.51
 283  0.831  0.751  0.593- 400 1.86 407 2.11 362 2.71 365 2.79 364 2.89
 284  0.832  0.248  0.591- 401 1.85 409 2.11 335 2.64 363 2.81 383 2.87
 285  0.833  0.504  0.589- 399 1.83 457 2.06 349 2.58 365 2.79 363 2.97
 286  0.832  0.002  0.592- 402 1.99 387 2.02 332 2.57 383 2.86 364 2.92
 287  0.500  0.756  0.593- 398 1.95 388 2.04 331 2.67 384 2.73 386 2.93
 288  0.418  0.065  0.640- 396 1.80 367 2.51 376 2.54
 289  0.427  0.304  0.656-  37 2.13  22 2.14 397 2.31 375 2.96 369 3.43
 290  0.411  0.813  0.639- 398 1.93  23 2.06 372 2.58 384 2.70
 291  0.397  0.550  0.652-  26 2.11  19 2.11 408 2.16 368 2.79 386 3.48
 292  0.752  0.570  0.635- 399 1.92  15 2.09 365 2.60 380 2.69
 293  0.741  0.810  0.640- 400 1.98  28 2.04 379 2.59 364 2.70
 294  0.747  0.312  0.640- 401 2.00   3 2.07 370 2.63 363 2.73
 295  0.748  0.067  0.639- 402 1.80 371 2.48 383 2.48
 296  0.083  0.312  0.640- 403 1.80 381 2.49 378 2.51
 297  0.666  0.875  0.499- 431 1.97 417 2.00 325 2.74 350 2.77 322 2.81 379 3.23
 298  0.088  0.562  0.642- 404 1.79 382 2.48 373 2.54
 299  0.084  0.061  0.642- 406 1.79 377 2.49 315 2.50
 300  0.086  0.437  0.639- 404 1.80 378 2.51 381 2.52
 301  0.083  0.186  0.641- 403 1.79 315 2.50 377 2.50
 302  0.418  0.188  0.640- 397 1.99  22 2.02 376 2.64 367 2.66
 303  0.415  0.419  0.630-  37 2.03 408 2.08 375 2.53 369 2.59
 304  0.084  0.936  0.640- 406 1.80 366 2.49 374 2.50
 305  0.083  0.687  0.640- 405 1.80 382 2.46 373 2.52
 306  0.913  0.436  0.639- 457 1.80 363 2.52 381 2.53
 307  0.916  0.687  0.639- 407 1.80 382 2.46 365 2.50
 308  0.915  0.937  0.641- 387 1.80 364 2.47 366 2.50
 309  0.241  0.442  0.641- 390 1.91   8 2.10 378 2.62 369 2.92
 310  0.252  0.674  0.667-  45 2.10   4 2.12 373 3.09 368 3.10
 311  0.579  0.191  0.644- 392 1.90  25 2.13 376 2.68 371 2.70
 312  0.251  0.930  0.637- 394 1.80 374 2.48 372 2.49
 313  0.086  0.812  0.641- 405 1.79 374 2.49 366 2.54
 314  0.917  0.812  0.361- 434 1.97 341 2.79 339 2.79
 315  0.001  0.123  0.620- 301 2.50 258 2.50 299 2.50 281 2.52 202 2.87 203 2.96 238 3.20 182 3.21
                           196 3.32 242 3.33 406 3.41 387 3.42 409 3.43 403 3.45 433 3.92 430 3.93
 316  0.833  0.625  0.407-  83 2.75 273 2.79  64 2.79 126 2.79 105 2.79 269 2.79  93 2.79 138 2.79
                           139 2.79 150 2.80  53 2.88 458 3.42 446 3.42 435 3.42 434 3.42 432 3.45
 317  1.000  0.501  0.507- 198 2.63 195 2.65 218 2.69 243 2.69 236 2.70  75 2.83  74 2.86  64 2.89
                           142 2.90  84 2.92  61 2.92 164 3.00 410 3.38 413 3.40 429 3.41 421 3.42
 318  0.332  0.499  0.501- 224 2.63 204 2.68  65 2.70  81 2.70 146 2.73 155 2.78 168 2.81  80 2.82
                           213 2.83  58 2.84 188 2.84 233 3.04 408 3.35 449 3.41 419 3.42 415 3.44
 319  0.330  0.248  0.503- 184 2.64 200 2.70 193 2.72 225 2.74  76 2.74  51 2.74 154 2.78 145 2.82
                           167 2.88  68 2.88  81 2.91 232 2.98 397 3.33 418 3.36 420 3.42 448 3.45
 320  0.333  0.001  0.506- 201 2.59 246 2.68 226 2.68 191 2.71 234 2.74  76 2.79 144 2.83  78 2.84
                           152 2.84  89 2.90  56 2.93 166 2.96 416 3.33 425 3.38 418 3.40 424 3.41
 321  0.334  0.751  0.501- 205 2.70 229 2.70 147 2.72  78 2.75  69 2.76 156 2.77 223 2.78  80 2.81
                            57 2.83 169 2.83 189 2.85 215 2.94 391 3.35 414 3.41 424 3.41 398 3.43
 322  0.666  0.000  0.506- 207 2.59 230 2.63 241 2.68 222 2.72 185 2.77 297 2.81  79 2.81  52 2.84
                            92 2.85  86 2.89 148 2.90 170 2.96 426 3.37 417 3.38 423 3.39 431 3.39
 323  0.669  0.500  0.501- 228 2.61  82 2.70  54 2.71 209 2.71 150 2.76  88 2.78  91 2.80 172 2.81
                            90 2.82 187 2.84 219 2.87 244 3.01 389 3.35 458 3.41 422 3.41 432 3.42
 324  0.667  0.248  0.503- 206 2.63  79 2.73 231 2.74  55 2.75 221 2.76  71 2.79 190 2.79 149 2.81
                           216 2.83 158 2.87 171 2.88  82 2.92 426 3.41 401 3.43 428 3.43 423 3.43
 325  0.666  0.752  0.502- 208 2.65 227 2.67  73 2.72 297 2.74 220 2.77  53 2.77  90 2.81 151 2.81
                            87 2.83 245 2.85 173 2.85 186 3.01 400 3.36 431 3.38 427 3.39 454 3.45
 326  0.166  0.001  0.506- 210 2.57 192 2.67 238 2.71 226 2.73 246 2.74 181 2.75 140 2.84 183 2.86
                           152 2.88  60 2.88  89 2.92 174 2.98 425 3.38 418 3.38 433 3.39 412 3.44
 327  0.166  0.248  0.506- 211 2.61 196 2.64 237 2.68 184 2.72 225 2.73 181 2.77  51 2.85 277 2.87
                            62 2.87 141 2.88 154 2.96 175 2.97 420 3.37 418 3.39 433 3.39 421 3.46
 328  0.163  0.500  0.502- 214 2.57 195 2.69 236 2.73 142 2.75 277 2.76 224 2.77 278 2.79  61 2.79
                           213 2.84 176 2.85  65 2.85 155 2.93 390 3.32 421 3.40 413 3.42 438 3.42
 329  0.500  0.999  0.505- 249 2.57 241 2.68 222 2.72 191 2.72 234 2.77 197 2.82 271 2.84 144 2.84
                            92 2.85  86 2.86  56 2.87 178 2.95 424 3.38 416 3.39 431 3.39 426 3.40
 330  0.165  0.751  0.503- 194 2.63 235 2.67 183 2.73 212 2.74 143 2.77  59 2.81 278 2.82 156 2.83
                           223 2.87 177 2.88  69 2.88 215 2.92 391 3.34 412 3.37 413 3.42 419 3.45
 331  0.501  0.753  0.504- 287 2.67 271 2.68 189 2.68 245 2.71  73 2.75 147 2.78 229 2.79 220 2.81
                            87 2.85 180 2.90  57 2.90 272 2.94 398 3.36 431 3.37 424 3.42 427 3.42
 332  0.834  0.000  0.507- 286 2.57 239 2.65 230 2.68 182 2.72 276 2.78 185 2.79 274 2.83  66 2.85
                            52 2.88  70 2.90 148 2.93 159 2.99 417 3.36 423 3.36 430 3.41 411 3.41
 333  0.501  0.500  0.500- 188 2.61  88 2.70 272 2.71 146 2.73 219 2.75 244 2.75  91 2.77 160 2.80
                           270 2.81  58 2.83 233 2.92 247 3.27 453 3.40 428 3.43 442 3.44 427 3.45
 334  0.501  0.248  0.502- 248 2.65  71 2.72 197 2.73 193 2.73 221 2.73 216 2.74  68 2.81 145 2.81
                           270 2.82 179 2.85 158 2.86 232 2.98 397 3.37 426 3.39 428 3.42 452 3.45
 335  0.835  0.248  0.503- 284 2.64 242 2.66 153 2.71 276 2.77 275 2.79  85 2.79  55 2.80  67 2.81
                           231 2.84 190 2.89 157 2.89 149 2.94 401 3.35 430 3.38 429 3.44 422 3.44
 336  0.000  0.751  0.507- 199 2.57 194 2.72 240 2.72 217 2.72 235 2.74  75 2.78  77 2.78 143 2.87
                            63 2.87  59 2.93  83 2.94 165 2.99 413 3.39 410 3.39 412 3.39 411 3.40
 337  0.001  0.250  0.506- 203 2.57 196 2.67 242 2.68 153 2.75 237 2.77  74 2.77  72 2.79 141 2.86
                            67 2.89  62 2.89  85 2.91 163 2.96 421 3.39 429 3.40 433 3.40 430 3.41
 338  0.000  1.000  0.507- 202 2.59 239 2.69 192 2.70 238 2.70 182 2.70  77 2.80  72 2.80 140 2.88
                            66 2.89  70 2.91  60 2.91 162 2.99 411 3.40 412 3.40 430 3.41 433 3.41
 339  0.833  0.875  0.407- 274 2.75  70 2.78 125 2.79 104 2.79 314 2.79 101 2.79 139 2.79 159 2.79
                           151 2.79  63 2.80  52 2.84 446 3.42 434 3.42 444 3.42 455 3.42 417 3.48
 340  0.000  0.625  0.407-  75 2.73 269 2.79  93 2.79 114 2.79 136 2.79 164 2.79 165 2.79  59 2.79
                            83 2.80  64 2.80 142 2.81 435 3.42 434 3.42 438 3.42 439 3.42 413 3.54
 341  0.000  0.875  0.407-  70 2.77  77 2.78 314 2.79 133 2.79 101 2.79 135 2.79 165 2.79 162 2.79
                            60 2.80  63 2.81 143 2.81 434 3.42 439 3.42 455 3.42 436 3.42 412 3.57
 342  0.333  0.125  0.407-  76 2.74 132 2.79 134 2.79 124 2.79 103 2.79 166 2.79 167 2.79  68 2.79
                           152 2.80  51 2.81 144 2.83 440 3.42 441 3.42 447 3.42 448 3.42 416 3.48
 343  0.333  0.375  0.407- 154 2.74  58 2.77 110 2.79 131 2.79 111 2.79 123 2.79 167 2.79 168 2.79
                            65 2.81 145 2.85  81 2.88 441 3.42 442 3.42 448 3.42 449 3.42 415 3.43
 344  0.333  0.625  0.407- 155 2.73  57 2.78 130 2.79 109 2.79 122 2.79 102 2.79 168 2.79 169 2.79
                            69 2.79 146 2.88  80 2.90 442 3.42 443 3.42 449 3.42 450 3.42 414 3.45
 345  0.333  0.875  0.407-  78 2.75  89 2.79 129 2.79 121 2.79 108 2.79 100 2.79 169 2.79 166 2.79
                            56 2.79 156 2.82 147 2.84 443 3.42 450 3.42 440 3.42 447 3.42 425 3.48
 346  0.667  0.125  0.407- 148 2.76  79 2.77 128 2.79 107 2.79 120 2.79  99 2.79 170 2.79 171 2.79
                            92 2.82  71 2.84  55 2.85 444 3.42 445 3.42 451 3.42 452 3.42 426 3.53
 347  0.667  0.375  0.407- 149 2.75 158 2.75 106 2.79 127 2.79  98 2.79 119 2.79 171 2.79 172 2.79
                            54 2.82  88 2.86  82 2.89 445 3.42 458 3.42 453 3.42 452 3.42 428 3.47
 348  0.667  0.625  0.407- 150 2.74 126 2.79 105 2.79 118 2.79  97 2.79 172 2.79 173 2.79  91 2.79
                            87 2.80  53 2.85  90 2.88 458 3.42 446 3.42 453 3.42 454 3.42 427 3.43
 349  0.836  0.500  0.503- 285 2.58 243 2.68 218 2.72 273 2.75  84 2.78  64 2.78 228 2.78 187 2.82
                           275 2.83  54 2.84 138 2.88 150 2.93 399 3.36 422 3.41 432 3.41 429 3.41
 350  0.667  0.875  0.407- 151 2.76 297 2.77 125 2.79 104 2.79 117 2.79  96 2.79 173 2.79 170 2.79
                            86 2.79  52 2.82  73 2.84 446 3.42 454 3.42 444 3.42 451 3.42 417 3.50
 351  0.167  0.375  0.407- 277 2.72  61 2.78 111 2.79 137 2.79 123 2.79 113 2.79 176 2.79 175 2.79
                           141 2.80 154 2.82  65 2.86 448 3.42 449 3.42 437 3.42 438 3.42 420 3.44
 352  0.167  0.625  0.407-  59 2.76 278 2.77 142 2.79 122 2.79 102 2.79 114 2.79 136 2.79 176 2.79
                           177 2.79 155 2.79  69 2.87 449 3.42 450 3.42 438 3.42 439 3.42 419 3.46
 353  0.167  0.875  0.407-  60 2.77  89 2.78 183 2.78 121 2.79 133 2.79 100 2.79 135 2.79 177 2.79
                           174 2.79 143 2.80 156 2.83 450 3.42 439 3.42 447 3.42 436 3.42 425 3.46
 354  0.500  0.125  0.407-  68 2.78 197 2.78 120 2.79  99 2.79 132 2.79 134 2.79 178 2.79 179 2.79
                            92 2.80 144 2.83  71 2.83 451 3.42 452 3.42 440 3.42 441 3.42 416 3.50
 355  0.500  0.375  0.407-  58 2.77 270 2.78  98 2.79 119 2.79 110 2.79 131 2.79 179 2.79 160 2.79
                           158 2.79  88 2.84 145 2.88 452 3.42 453 3.42 441 3.42 442 3.42 415 3.44
 356  0.500  0.625  0.407-  57 2.77  87 2.78 118 2.79  97 2.79 130 2.79 109 2.79 160 2.79 180 2.79
                           272 2.79  91 2.83 146 2.90 453 3.42 454 3.42 442 3.42 443 3.42 414 3.44
 357  0.500  0.875  0.407-  56 2.76  86 2.77 117 2.79 129 2.79  96 2.79 108 2.79 180 2.79 178 2.79
                           271 2.82 147 2.85  73 2.86 454 3.42 443 3.42 451 3.42 440 3.42 424 3.51
 358  0.833  0.125  0.407-  85 2.76 148 2.78 276 2.78 128 2.79 107 2.79 116 2.79  95 2.79 159 2.79
                           157 2.79  66 2.80  55 2.84 444 3.42 445 3.42 455 3.42 456 3.42 423 3.53
 359  0.833  0.375  0.407-  84 2.77 275 2.78 106 2.79 127 2.79  94 2.79 115 2.79 157 2.79 138 2.79
                            67 2.79 149 2.83  54 2.84 445 3.42 458 3.42 456 3.42 435 3.42 422 3.45
 360  0.167  0.125  0.407-  62 2.76 181 2.77 124 2.79 103 2.79 112 2.79 161 2.79 174 2.79 175 2.79
                           140 2.80  51 2.81 152 2.81 447 3.42 448 3.42 436 3.42 437 3.42 418 3.57
 361  0.000  0.375  0.407-  74 2.74  61 2.76  94 2.79 115 2.79 137 2.79 113 2.79 163 2.79 164 2.79
                            84 2.80 141 2.80  67 2.81 435 3.42 456 3.42 438 3.42 437 3.42 429 3.54
 362  0.836  0.752  0.503- 240 2.63 217 2.68 283 2.71 274 2.74  63 2.75 227 2.75  83 2.80  53 2.84
                           139 2.87 273 2.87 151 2.89 186 2.97 400 3.30 411 3.37 410 3.43 434 3.44
 363  0.837  0.372  0.604- 306 2.52 260 2.52 254 2.60 294 2.73 284 2.81 153 2.86 243 2.96 187 2.96
                           285 2.97 231 3.02 275 3.14 409 3.39 401 3.42 457 3.46 399 3.49 429 3.53
 364  0.832  0.876  0.618- 308 2.47 251 2.49 261 2.50 293 2.70 283 2.89 286 2.92 185 3.16 217 3.23
                           239 3.24 227 3.31 387 3.44 400 3.44 402 3.45 407 3.48 411 3.90 417 3.96
 365  0.840  0.627  0.603- 307 2.50 259 2.53 292 2.60 285 2.79 283 2.79 240 2.84 186 2.84 218 2.87
                           250 2.98 273 3.11 228 3.22 407 3.34 457 3.37 399 3.42 410 3.46 400 3.51
 366  1.000  0.875  0.622- 304 2.49 308 2.50 261 2.51 313 2.54 199 2.85 202 2.92 217 3.31 235 3.34
                           239 3.35 192 3.35 407 3.40 405 3.43 406 3.46 387 3.47 374 3.95 364 3.96
 367  0.332  0.120  0.614- 268 2.49 288 2.51 252 2.52 302 2.66 201 2.76 226 3.04 200 3.07 234 3.08
                           184 3.15 193 3.24 394 3.36 396 3.36 395 3.44  76 3.46 397 3.54 418 3.76
 368  0.335  0.625  0.595- 265 2.53 205 2.59 256 2.59 233 2.71 215 2.74  80 2.76 291 2.79 204 2.87
                           189 2.91 224 2.91 310 3.10 408 3.38 398 3.43 414 3.44 419 3.46 391 3.50
 369  0.326  0.374  0.593- 303 2.59 213 2.65 267 2.65 225 2.66 200 2.67  81 2.70 232 2.73 204 2.74
                           309 2.92 188 3.13 420 3.29 395 3.40  37 3.40 390 3.41 408 3.42 289 3.43
 370  0.671  0.372  0.594- 294 2.63 231 2.66 263 2.67 209 2.74  82 2.74 187 2.74 254 2.78 206 2.79
                           221 2.88 244 2.95 279 3.02 422 3.35 401 3.40 428 3.45 389 3.45 392 3.46
 371  0.665  0.125  0.612- 295 2.48 262 2.51 253 2.67 311 2.70 206 2.82 207 2.84 190 3.00 216 3.06
                           222 3.08 230 3.17 392 3.38  79 3.38 393 3.39 402 3.40 401 3.49 426 3.75
 372  0.334  0.879  0.603- 312 2.49 255 2.57 290 2.58 201 2.72 266 2.78 191 2.89 223 2.91 229 2.92
                           246 2.93 205 3.11  78 3.14 394 3.33 396 3.34 391 3.45 398 3.49 424 3.56
 373  0.160  0.628  0.603- 305 2.52 298 2.54 265 2.54 212 2.71 214 2.82 194 2.82 236 2.86 215 2.88
                           310 3.09 278 3.10 224 3.20 405 3.32 404 3.38 413 3.45 390 3.49 391 3.54
 374  0.166  0.875  0.613- 312 2.48 313 2.49 304 2.50 210 2.85 212 2.88 266 2.92 235 3.06 223 3.13
                           192 3.13 246 3.20 183 3.40 394 3.41 406 3.41 405 3.42 391 3.43 412 3.75
 375  0.502  0.371  0.595- 263 2.53 303 2.53 244 2.63 248 2.66 232 2.66 221 2.77 270 2.86 279 2.86
                           188 2.87 289 2.96 247 3.00 392 3.38 428 3.39 397 3.44 415 3.47 408 3.53
 376  0.500  0.122  0.606- 262 2.52 288 2.54 302 2.64 311 2.68 249 2.76 216 2.93 234 2.95 222 2.95
                           248 2.96 193 3.11 197 3.20 393 3.33 396 3.36 392 3.45 397 3.50 426 3.63
 377  0.168  0.123  0.622- 299 2.49 301 2.50 268 2.51 252 2.55 210 2.90 211 2.95 226 3.28 238 3.29
                           184 3.34 196 3.37 395 3.40 394 3.43 406 3.45 403 3.48 367 3.90 315 3.95
 378  0.163  0.372  0.607- 296 2.51 300 2.51 267 2.59 309 2.62 211 2.77 237 2.87 214 3.00 213 3.03
                           225 3.04 195 3.07 277 3.29 403 3.34 390 3.43 395 3.47 404 3.48 421 3.60
 379  0.665  0.881  0.607- 282 2.51 251 2.53 293 2.59 257 2.64 207 2.71 185 2.92 220 2.92 241 2.97
                           227 3.14 208 3.14 297 3.23 393 3.32 402 3.36 388 3.49 400 3.56 431 3.60
 380  0.666  0.626  0.593- 208 2.58 264 2.63 186 2.65 292 2.69  90 2.71 280 2.81 245 2.82 219 2.82
                           228 2.84 209 2.94 250 3.19 389 3.32 388 3.37 427 3.39  15 3.39 432 3.40
 381  1.000  0.375  0.622- 296 2.49 260 2.50 300 2.52 306 2.53 203 2.93 198 2.95 153 3.31 243 3.33
                           237 3.33 195 3.34 409 3.45 457 3.46 404 3.46 403 3.49 378 3.89 363 3.89
 382  1.000  0.622  0.637- 305 2.46 307 2.46 259 2.47 298 2.48 198 2.95 199 3.23 457 3.46 404 3.47
                           405 3.61 407 3.62 365 3.92 373 3.94 317 4.74 336 4.85
 383  0.833  0.125  0.620- 295 2.48 258 2.49 281 2.49 253 2.71 286 2.86 284 2.87 190 3.18 182 3.26
                           242 3.31 230 3.36 401 3.42 402 3.42 387 3.43 409 3.47 430 3.94 315 3.95
 384  0.501  0.877  0.610- 282 2.49 255 2.52 290 2.70 287 2.73 249 2.81 257 2.82 220 3.02 241 3.07
                           191 3.08 229 3.12 271 3.26 393 3.39 396 3.40 398 3.45 388 3.48 431 3.69
 385  0.000  0.125  0.407-  72 2.74  62 2.78  85 2.79 116 2.79  95 2.79 112 2.79 161 2.79 162 2.79
                           163 2.79 140 2.81  66 2.81 455 3.42 456 3.42 436 3.42 437 3.42 430 3.57
 386  0.504  0.625  0.594- 256 2.56 280 2.62 233 2.65 245 2.66 219 2.69 247 2.73 264 2.79 189 2.79
                           272 2.82 287 2.93 427 3.38 388 3.40 389 3.43 414 3.46 398 3.47  48 3.48
 387  0.916  0.000  0.604- 258 1.79 308 1.80 202 2.01 286 2.02 182 2.20 239 2.21 315 3.42 383 3.43
                           364 3.44 366 3.47 332 3.50 338 3.53
 388  0.585  0.750  0.599- 280 1.87 208 1.93 257 1.94 287 2.04 220 2.06 245 2.11 380 3.37 386 3.40
                           384 3.48 325 3.48 379 3.49 331 3.49
 389  0.590  0.501  0.594- 209 1.81 219 1.89 244 1.95 264 1.98 279 2.10 247 2.25  11 3.14 380 3.32
                           323 3.35 386 3.43 370 3.45 333 3.51 375 3.58
 390  0.243  0.499  0.593- 214 1.83 309 1.91 213 1.94 265 1.99 224 2.02 204 2.16 328 3.32 369 3.41
                           378 3.43 318 3.48 373 3.49 368 3.56
 391  0.251  0.753  0.591- 223 1.81 212 1.89 266 1.93 215 1.98 205 2.00 330 3.34 321 3.35 374 3.43
                           372 3.45 368 3.50 373 3.54
 392  0.584  0.247  0.597- 206 1.89 311 1.90 263 1.96 216 1.99 248 2.04 221 2.12 371 3.38 375 3.38
                           324 3.44 376 3.45 370 3.46 334 3.47
 393  0.583  0.001  0.604- 262 1.79 282 1.80 207 2.00 249 2.00 222 2.21 241 2.25 379 3.32 376 3.33
                           371 3.39 384 3.39 329 3.55 322 3.56
 394  0.250  0.998  0.604- 268 1.79 312 1.80 210 1.98 201 2.03 246 2.23 226 2.23 372 3.33 367 3.36
                           374 3.41 377 3.43 326 3.54 320 3.55
 395  0.249  0.246  0.603- 252 1.74 211 1.93 267 1.94 200 2.06 184 2.13 225 2.29 369 3.40 377 3.40
                           367 3.44 378 3.47 327 3.52 319 3.58
 396  0.417  0.000  0.605- 255 1.79 288 1.80 249 2.00 201 2.00 234 2.25 191 2.25 372 3.34 376 3.36
                           367 3.36 384 3.40 329 3.57 320 3.57
 397  0.415  0.248  0.591- 193 1.85 200 1.90 232 1.97 302 1.99 248 1.99 289 2.31 319 3.33 334 3.37
                           375 3.44 369 3.50 376 3.50 367 3.54
 398  0.418  0.751  0.595- 290 1.93 287 1.95 229 1.96 205 2.00 189 2.01 256 2.04 331 3.36 321 3.43
                           368 3.43 384 3.45 386 3.47 372 3.49
 399  0.756  0.503  0.595- 285 1.83 292 1.92 254 1.97 228 1.98 187 2.05 209 2.14 349 3.36 365 3.42
                           380 3.48 363 3.49 323 3.52 370 3.54
 400  0.752  0.753  0.591- 227 1.83 283 1.86 186 1.96 293 1.98 208 2.07 250 2.40  28 3.13 362 3.30
                           325 3.36 364 3.44 380 3.48 365 3.51 379 3.56
 401  0.754  0.248  0.595- 284 1.85 190 1.95 253 1.98 294 2.00 231 2.00 206 2.14   3 3.05 335 3.35
                           370 3.40 383 3.42 363 3.42 324 3.43 371 3.49
 402  0.750  0.002  0.604- 295 1.80 251 1.80 286 1.99 207 2.02 230 2.20 185 2.27 379 3.36 371 3.40
                           383 3.42 364 3.45 332 3.55 322 3.56
 403  0.083  0.248  0.603- 301 1.79 296 1.80 203 1.99 211 2.04 196 2.18 237 2.24 378 3.34 315 3.45
                           377 3.48 381 3.49 327 3.52 337 3.52
 404  0.082  0.501  0.603- 298 1.79 300 1.80 198 1.96 214 2.05 236 2.21 195 2.23 373 3.38 381 3.46
                           382 3.47 317 3.48 378 3.48 328 3.60
 405  0.082  0.751  0.603- 313 1.79 305 1.80 199 1.95 212 2.13 235 2.17 194 2.21 373 3.32 374 3.42
                           366 3.43 336 3.48 330 3.59 382 3.61
 406  0.083  0.999  0.604- 299 1.79 304 1.80 202 2.00 210 2.02 192 2.20 238 2.21 315 3.41 374 3.41
                           377 3.45 366 3.46 338 3.51 326 3.52
 407  0.919  0.751  0.603- 261 1.79 307 1.80 199 1.96 283 2.11 217 2.17 240 2.23 365 3.34 366 3.40
                           364 3.48 336 3.48 362 3.60 382 3.62
 408  0.412  0.497  0.593- 204 1.85 188 1.88 233 1.90 303 2.08 247 2.09 291 2.16 318 3.35 368 3.38
                           369 3.42 333 3.49 375 3.53 386 3.59
 409  0.920  0.248  0.603- 281 1.79 260 1.80 203 1.95 284 2.11 242 2.17 153 2.21 363 3.39 315 3.43
                           381 3.45 383 3.47 337 3.48 335 3.59
 410  0.919  0.626  0.506- 218 1.84 240 1.85  75 1.94 273 2.05  83 2.10  64 2.11 317 3.38 336 3.39
                           349 3.42 362 3.43 365 3.46 340 3.54 316 3.59
 411  0.917  0.875  0.507- 239 1.84 217 1.84  77 1.98 274 2.02  70 2.11  63 2.12 362 3.37 338 3.40
                           336 3.40 332 3.41 341 3.58 339 3.59 364 3.90 366 3.98
 412  0.083  0.875  0.507- 192 1.84 235 1.85  77 1.96 183 2.02  60 2.10 143 2.11 330 3.37 336 3.39
                           338 3.40 326 3.44 341 3.57 353 3.59 374 3.75 366 3.99
 413  0.082  0.626  0.506- 236 1.84 194 1.85  75 1.94 278 2.05  59 2.09 142 2.11 336 3.39 317 3.40
                           330 3.42 328 3.42 373 3.45 340 3.54 352 3.58
 414  0.417  0.626  0.501-  57 1.91  80 1.93 189 1.95 272 1.97 146 1.97 233 2.12 321 3.41 356 3.44
                           368 3.44 344 3.45 333 3.45 331 3.46 386 3.46 318 3.48
 415  0.416  0.374  0.501- 145 1.91  81 1.94  58 1.97 270 1.97 232 1.97 188 2.06 343 3.43 318 3.44
                           355 3.44 333 3.45 334 3.46 319 3.47 375 3.47 369 3.49
 416  0.416  0.122  0.503- 234 1.84  76 1.95 144 1.96 197 1.98 193 2.03  68 2.07 320 3.33 329 3.39
                           334 3.46 319 3.47 342 3.48 354 3.50 376 3.69 367 3.88
 417  0.751  0.879  0.503- 185 1.82 274 1.95  52 1.95 297 2.00 227 2.03 151 2.09 332 3.36 322 3.38
                           325 3.47 339 3.48 362 3.48 350 3.50 379 3.72 364 3.96
 418  0.249  0.125  0.507- 226 1.84 184 1.87 181 1.96  76 2.01 152 2.10  51 2.13 319 3.36 326 3.38
                           327 3.39 320 3.40 360 3.57 342 3.59 367 3.76 377 3.96
 419  0.248  0.625  0.503- 278 1.91 224 1.91 215 1.96  69 1.99 155 2.00  80 2.06 318 3.42 328 3.43
                           330 3.45 368 3.46 352 3.46 321 3.48 344 3.51 373 3.65
 420  0.247  0.373  0.503- 225 1.85 277 1.90 154 1.96 213 1.98  65 2.06  81 2.08 369 3.29 327 3.37
                           319 3.42 351 3.44 328 3.45 318 3.46 343 3.53 378 3.71
 421  0.082  0.375  0.506- 237 1.84 195 1.85  74 1.95 277 2.02 141 2.10  61 2.11 337 3.39 328 3.40
                           317 3.42 327 3.46 361 3.55 351 3.58 378 3.60 381 3.98
 422  0.753  0.375  0.503- 275 1.90 187 1.92 231 1.97 149 2.00  54 2.00  82 2.06 370 3.35 349 3.41
                           323 3.41 335 3.44 359 3.45 324 3.49 347 3.52 363 3.64
 423  0.751  0.122  0.505- 230 1.84 190 1.94 276 1.95  79 2.01 148 2.02  55 2.11 332 3.36 322 3.39
                           324 3.43 335 3.45 358 3.53 346 3.55 371 3.79 383 3.97
 424  0.417  0.877  0.504- 191 1.84 229 1.97  78 1.97 271 1.98  56 1.99 147 2.09 329 3.38 320 3.41
                           321 3.41 331 3.42 345 3.51 357 3.51 372 3.56 384 3.74
 425  0.249  0.879  0.502- 246 1.84  89 1.93 183 1.93  78 2.00 223 2.06 156 2.06 326 3.38 320 3.38
                           353 3.46 345 3.48 330 3.48 321 3.49 372 3.64 374 3.88
 426  0.583  0.123  0.505- 222 1.85 216 1.93  79 1.96 197 2.00  92 2.03  71 2.09 322 3.37 334 3.39
                           329 3.40 324 3.41 346 3.53 354 3.54 376 3.63 371 3.75
 427  0.584  0.627  0.501-  87 1.91 245 1.92  90 1.93 272 1.99  91 1.99 219 2.08 386 3.38 325 3.39
                           380 3.39 331 3.42 348 3.43 356 3.44 333 3.45 323 3.48
 428  0.584  0.373  0.502- 221 1.89  82 1.94 158 1.95 270 2.00  88 2.02 244 2.05 375 3.39 334 3.42
                           324 3.43 333 3.43 370 3.45 323 3.46 347 3.47 355 3.48
 429  0.919  0.375  0.506- 153 1.84 243 1.85  74 1.94 275 2.05  67 2.09  84 2.10 337 3.40 349 3.41
                           317 3.41 335 3.44 363 3.53 361 3.54 359 3.59 381 3.97
 430  0.918  0.125  0.507- 182 1.84 242 1.84  72 1.97 276 2.01  66 2.11  85 2.12 335 3.38 338 3.41
                           332 3.41 337 3.41 385 3.57 358 3.59 315 3.93 383 3.94
 431  0.584  0.876  0.506- 241 1.84 220 1.92 297 1.97 271 1.99  86 2.06  73 2.10 331 3.37 325 3.38
                           322 3.39 329 3.39 350 3.55 357 3.56 379 3.60 384 3.69
 432  0.752  0.624  0.503- 273 1.89 228 1.95 186 1.97  53 1.98 150 1.99  90 2.06 380 3.40 349 3.41
                           323 3.42 316 3.45 362 3.46 325 3.51 348 3.51 365 3.67
 433  0.083  0.125  0.507- 238 1.84 196 1.85  72 1.98 181 2.00 140 2.11  62 2.12 326 3.39 327 3.39
[...]
  273            m_sumb_d                              0.353472                       42   5
  274          m_sumb_d                              0.000639                          7   4
  275        setdij_                               5.022289                          140   3
  276          m_sumb_d                              1.116944                        140   4
  277        set_dd_magatom                        0.000027                            7   3
  278        set_dd_paw                            0.090574                            7   3
  279          set_rsgf_all                          0.000010                          7   4
  280          m_sumb_d                              0.087152                         49   4
  281        strkin                                0.044465                            7   3
  282          m_sumb_d                              0.004587                          7   4
  283        strelo                                0.126277                            7   3
  284          m_sumb_d                              0.078239                         14   4
  285        strnlr                               67.160852                            7   3
  286          rspher_all                            2.269089                         63   4
  287          phaser                                0.000043                         63   4
  288          rpro_isp                             64.409683                         63   4
  289            fftwav_mpi                           53.449795                     8820   5
  290              fft3d_mpi                            45.916450                   8820   6
  291                fftbrc_mpi                           35.347706                 8820   7
  292                  fftbas_plan_mpi                      35.319240               8820   8
  293                    dfftw_execute                        16.895533            26460   9
  294                    map_forward                          12.900799            17640   9
  295                      map_gather                            1.001025           8820  10
  296                      m_alltoallv_z                         4.698174           8820  10
  297                      map_scatter                           2.500630           8820  10
  298            rpromu                               10.872148                     2205   5
  299              rpromu_gemm                           3.366213                 504945   6
  300              m_sumb_d                              1.284390                   8820   6
  301          m_sumb_d                              0.337800                          7   4
  302        m_sumb_d                              0.031005                           49   3
  303        fft3d_mpi                             4.422955                          497   3
  304          fftbrc_mpi                            4.203336                        497   4
  305            fftbas_plan_mpi                       4.201638                      497   5
  306              dfftw_execute                         0.623900                   1491   6
  307              map_forward                           1.691783                    490   6
  308                map_gather                            0.033656                  245   7
  309                m_alltoallv_z                         1.360117                  245   7
  310                map_scatter                           0.293355                  245   7
  311              map_backward                          1.535007                    504   6
  312                map_gather                            0.194289                  252   7
  313                m_alltoallv_z                         1.267637                  252   7
  314                map_scatter                           0.068142                  252   7
  315        ggaall_grid                           1.316534                            7   3
  316        forhar                                2.808183                            7   3
  317          m_sumb_d                              0.044060                          7   4
  318        strehar                               0.050132                            7   3
  319          m_sumb_d                              0.003517                          7   4
  320        m_bcast_d                             0.005440                           14   3
  321      potlok                               72.143772                             13   2
  322        fft3d_mpi                            26.115153                         2741   3
  323          fftbrc_mpi                           25.008827                       2741   4
  324            fftbas_plan_mpi                      24.999411                     2741   5
  325              dfftw_execute                         3.526620                   8223   6
  326              map_forward                           9.814643                   2754   6
  327                map_gather                            0.238273                 1390   7
  328                m_alltoallv_z                         7.923776                 1390   7
  329                map_scatter                           1.623711                 1390   7
  330              map_backward                          9.723550                   2728   6
  331                map_gather                            1.061581                 1364   7
  332                m_alltoallv_z                         8.264575                 1364   7
  333                map_scatter                           0.370196                 1364   7
  334        ggaall_grid                          18.861074                          237   3
  335        m_sumb_d                              0.324321                         1224   3
  336        fewald                                0.018756                           26   3
  337          rsp                                   0.017279                         26   4
  338          rcp                                   0.001196                         26   4
  339        pothar                                0.025260                           13   3
  340          m_sumb_d                              0.017338                         13   4
  341        m_bcast_d                             0.054204                           13   3
  342      potlok_metagga                        0.000100                             13   2
  343      set_dd_magatom                        0.000006                              7   2
  344      set_dd_paw                            0.162160                             13   2
  345        set_rsgf_all                          0.000024                           13   3
  346        m_sumb_d                              0.157688                           91   3
  347      m_sumb_d                             50.896438                           3518   2
  348      wavpre_noio                           1.626036                              6   2
  349        stufak                                1.545330                            6   3
  350      eddiag                              192.506421                              6   2
  351        overl                                 0.007861                            6   3
  352        redis_proj                            0.598648                           18   3
  353          m_alltoall_d                          0.591629                       2520   4
  354        fftwav_mpi                            5.766556                          840   3
  355          fft3d_mpi                             4.859828                        840   4
  356            fftbrc_mpi                            3.508278                      840   5
  357              fftbas_plan_mpi                       3.505478                    840   6
  358                dfftw_execute                         1.632505                 2520   7
  359                map_forward                           1.379458                 1680   7
  360                  map_gather                            0.145343                840   8
  361                  m_alltoallv_z                         0.447621                840   8
  362                  map_scatter                           0.245555                840   8
  363        hamilt_local                          4.008562                          840   3
  364          vhamil                                1.101359                        840   4
  365          kinhamil                              2.899647                        840   4
  366            fftext_mpi                            2.848389                      840   5
  367              fft3d_mpi                             2.763148                    840   6
  368                fftbrc_mpi                            2.305783                  840   7
  369                  fftbas_plan_mpi                       2.303240                840   8
  370                    dfftw_execute                         1.156469             2520   9
  371                    map_backward                          0.671477             1680   9
  372                      map_gather                            0.137571            840  10
  373                      m_alltoallv_z                         0.409243            840  10
  374                      map_scatter                           0.111986            840  10
  375        redis_pw                              1.585514                          846   3
  376          m_alltoall_d                          1.525329                       2520   4
  377        orth1                                 2.223629                          420   3
  378        m_sumb_d                              1.156274                            6   3
  379        shift_bands_between_low_high          0.000008                            6   3
  380        lincom                                1.782048                            6   3
 
 Flat profile
 ============
 
             routine name                   CPU           calls
 ---------------------------------------------------------------
 edwav                               11775.409148         738
 potlok                               1356.597756         751
 dfftw_execute                         704.949596     1261773
 lincom                                609.113924        2234
 m_alltoall_d                          560.060886     1772260
 m_alltoallv_z                         524.654088      422087
 m_sumb_d                              517.119823      741560
 orth1                                 506.449036      104720
 total_time                            475.814226           1
 fft3d_mpi                             395.989332      420591
 eddiag                                348.953603         382
 fftbas_plan_mpi                       306.928481      420591
 choleski                              253.426621         745
 fftwav_mpi                            248.645775      256840
 eccp                                  213.886385      206640
 ggaall_grid                           164.354859         982
 map_forward                           155.241781      571554
 map_scatter                           128.604753      422087
 racc0                                 105.670098       51660
 pw_charge                              95.686615       87300
 rpro1                                  82.317922       51660
 map_gather                             81.534394      422087
 vhamil                                 71.828827       53480
 w1_dscal                               52.309745       51660
 orthch                                 30.812414         745
 setdij_                                26.534390         934
 augmentation_charge                    24.446608         745
 force_and_stress                       12.715502           7
 m_bcast_z                              12.493306        2381
 redis_pw                               11.224954      210332
 rpromu                                  8.997551        3185
 fftext_mpi                              7.984709      105140
 redis_proj                              5.198122      163158
 rpromu_gemm                             4.895486      729365
 elmin_all                               4.538126           7
 rspher_all                              3.258286          92
 overl                                   3.251208       53156
 m_bcast_d                               3.020653         781
 forloc                                  2.772010           7
 soft_charge                             2.764795         745
 forhar                                  2.764123           7
 map_backward                            2.275076      269628
 kinhamil                                2.257209       53480
 stufak                                  1.805278           7
 densta                                  1.397682         746
 fftbrc_mpi                              1.345733      420591
 rsp                                     1.029459        1509
 depsum                                  0.837643         745
 hamilt_local                            0.450041       53480
 set_charge                              0.448565         745
 pothar                                  0.435260         751
 set_dd_paw                              0.376863         758
 fft_gq                                  0.199879         745
 rpro_isp                                0.156383          91
 strnlr                                  0.144237           7
 fewald                                  0.102788        1509
 wavpre_noio                             0.080707           6
 rcp                                     0.076594        1509
 strelo                                  0.048038           7
 strehar                                 0.046616           7
 strkin                                  0.039878           7
 fornlr                                  0.039551           7
 redis_pw_all                            0.009190         738
 potlok_metagga                          0.003035         751
 redis_pw_over_bands                     0.002921         751
 fordep                                  0.002028           7
 set_rsgf_all                            0.001516         758
 brgrid                                  0.000763           1
 phaser                                  0.000336         460
 crpa_reader                             0.000260           1
 rotate_active_occupied_orbital          0.000109           7
 proall                                  0.000096           7
 set_dd_magatom                          0.000033          14
 vectorpot                               0.000028           1
 shift_bands_between_low_high            0.000022          13
 ---------------------------------------------------------------
  summed up times    19916.8337359428     
 
 Accumulative profile
 ====================
 
             routine name                   CPU           calls
 ---------------------------------------------------------------
 total_time                          19866.713350           1
 elmin_all                           18916.154699           7
 edwav                               15677.847910         738
 fft3d_mpi                            2251.402848      420591
 potlok                               2051.042516         751
 fftbrc_mpi                           1855.413515      420591
 fftbas_plan_mpi                      1854.067782      420591
 fftwav_mpi                           1615.694958      256840
 orthch                                880.283550         745
 eddiag                                754.326026         382
 dfftw_execute                         704.949596     1261773
 set_charge                            655.412915         745
 map_forward                           618.713091      571554
 soft_charge                           618.483534         745
 lincom                                609.113924        2234
 m_alltoall_d                          560.060886     1772260
 m_alltoallv_z                         524.654088      422087
 m_sumb_d                              517.119823      741560
 orth1                                 506.449036      104720
 fftext_mpi                            354.984590      105140
 redis_pw                              322.610751      210332
 map_backward                          273.597000      269628
 hamilt_local                          254.176811       53480
 redis_proj                            253.873211      163158
 choleski                              253.426621         745
 eccp                                  226.349377      206640
 kinhamil                              181.897942       53480
 ggaall_grid                           164.354859         982
 racc0                                 128.640081       51660
 map_scatter                           128.604753      422087
 force_and_stress                      120.599155           7
 pw_charge                              95.686615       87300
 rpro_isp                               93.163889          91
 rpro1                                  92.715351       51660
 map_gather                             81.534394      422087
 vhamil                                 71.828827       53480
 strnlr                                 67.160852           7
 w1_dscal                               52.309745       51660
 redis_pw_over_bands                    47.175567         751
 redis_pw_all                           47.172646         738
 setdij_                                35.046302         934
 augmentation_charge                    34.893538         745
 fornlr                                 22.492745           7
 rpromu                                 15.731206        3185
 m_bcast_z                              12.493306        2381
 set_dd_paw                              9.726002         758
 proall                                  7.189685           7
 densta                                  5.179540         746
 rpromu_gemm                             4.895486      729365
 fft_gq                                  4.641726         745
 rspher_all                              3.258286          92
 overl                                   3.251208       53156
 m_bcast_d                               3.020653         781
 forhar                                  2.808183           7
 forloc                                  2.782513           7
 stufak                                  1.805278           7
 wavpre_noio                             1.626036           6
 depsum                                  1.587278         745
 fordep                                  1.529661           7
 fewald                                  1.405253        1509
 pothar                                  1.404258         751
 rsp                                     1.029459        1509
 strelo                                  0.126277           7
 rcp                                     0.076594        1509
 strehar                                 0.050132           7
 strkin                                  0.044465           7
 potlok_metagga                          0.003035         751
 set_rsgf_all                            0.001516         758
 brgrid                                  0.000763           1
 phaser                                  0.000336         460
 crpa_reader                             0.000260           1
 rotate_active_occupied_orbital          0.000109           7
 set_dd_magatom                          0.000033          14
 vectorpot                               0.000028           1
 shift_bands_between_low_high            0.000022          13
 ---------------------------------------------------------------
 
Profiling took  11.376117  3.639413  0.009790  0.009157 seconds
Profiling took  13.495924 seconds
