 vasp.6.3.2 27Jun22 (build Jan 03 2024 23:25:20) gamma-only                     
  
 executed on           IFC15_impi date 2024.06.05  02:33:55
 running  512 mpi-ranks, with    1 threads/rank
 distrk:  each k-point on  512 cores,    1 groups
 distr:  one band on NCORE=  32 cores,   16 groups


--------------------------------------------------------------------------------------------------------


 INCAR:
   ENCUT = 500.000000
   SIGMA = 0.010000
   EDIFF = 1.00e-05
   ALGO = A
   ISMEAR = 0
   NELM = 200
   NSW = 999
   NCORE = 32
   LCHARG = .TRUE.
   LWAVE = .TRUE.
   LREAL = Auto
   IBRION = 5
   POTIM = 0.015
   NFREE = 2
   ISYM = 0
   EDIFFG = -0.05
   GGA = BF
   LUSE_VDW = .TRUE.
   ZAB_VDW = -1.8867
   LBEEFENS = .TRUE.
   DIPOL = 0.5 0.5 0.65
   IDIPOL = 3
   LDIPOL = .TRUE.

 POTCAR:    PAW_PBE Au 04Oct2007                  
 POTCAR:    PAW_PBE O 08Apr2002                   
 POTCAR:    PAW_PBE Sr_sv 07Sep2000               
 POTCAR:    PAW_PBE Ti_sv 26Sep2005               
 POTCAR:    PAW_PBE H 15Jun2001                   
 -----------------------------------------------------------------------------
|                                                                             |
|               ----> ADVICE to this user running VASP <----                  |
|                                                                             |
|     You have switched on vdW-DFT.                                           |
|     This routine was written and supplied by Jiri Klimes. We recommend      |
|     that you carefully read and cite the following publications:            |
|       J. Klimes, D.R. Bowler, A. Michelides                                 |
|          J. Phys.: Cond Matt. 22 022201 (2010)                              |
|       J. Klimes, D.R. Bowler, A. Michelides                                 |
|          Phys. Rev. B. 83, 195131 (2011)                                    |
|     and references therein.                                                 |
|                                                                             |
 -----------------------------------------------------------------------------

 POTCAR:    PAW_PBE Au 04Oct2007                  
   SHA256 =  d0044ae04e2bdce24051b198fc5c053d722a5bc6fe3c3b100514a13fc5d2db88 Au/POTCAR             
   COPYR  = (c) Copyright 04Oct2007 Georg Kresse                                                    
   COPYR  = This file is part of the software VASP. Any use, copying, and all other rights are regul
   COPYR  = If you do not have a valid VASP license, you may not use, copy or distribute this file. 
   VRHFIN =Au: s1d10                                                                                
   LEXCH  = PE                                                                                      
   EATOM  =   926.0867 eV,   68.0654 Ry                                                             
                                                                                                    
   TITEL  = PAW_PBE Au 04Oct2007                                                                    
   LULTRA =        F    use ultrasoft PP ?                                                          
   IUNSCR =        1    unscreen: 0-lin 1-nonlin 2-no                                               
   RPACOR =    2.330    partial core radius                                                         
   POMASS =  196.966; ZVAL   =   11.000    mass and valenz                                          
   RCORE  =    2.500    outmost cutoff radius                                                       
   RWIGS  =    2.840; RWIGS  =    1.503    wigner-seitz radius (au A)                               
   ENMAX  =  229.943; ENMIN  =  172.457 eV                                                          
   ICORE  =        3    local potential                                                             
   LCOR   =        T    correct aug charges                                                         
   LPAW   =        T    paw PP                                                                      
   EAUG   =  356.670                                                                                
   DEXC   =    0.000                                                                                
   RMAX   =    2.562    core radius for proj-oper                                                   
   RAUG   =    1.300    factor for augmentation sphere                                              
   RDEP   =    2.598    radius for radial grids                                                     
   RDEPT  =    2.193    core radius for aug-charge                                                  
                                                                                                    
   Atomic configuration                                                                             
   16 entries                                                                                       
     n  l   j            E        occ.                                                              
     1  0  0.50    -80748.5001   2.0000                                                             
     2  0  0.50    -14244.7466   2.0000                                                             
     2  1  1.50    -12310.9591   6.0000                                                             
     3  0  0.50     -3362.1768   2.0000                                                             
     3  1  1.50     -2801.5463   6.0000                                                             
     3  2  2.50     -2203.8206  10.0000                                                             
     4  0  0.50      -729.8168   2.0000                                                             
     4  1  1.50      -546.0527   6.0000                                                             
     4  2  2.50      -325.7302  10.0000                                                             
     4  3  3.50       -81.1472  14.0000                                                             
     5  0  0.50      -108.3201   2.0000                                                             
     5  1  1.50       -59.7479   6.0000                                                             
     5  2  2.50        -6.8783  10.0000                                                             
     6  0  0.50        -5.7602   1.0000                                                             
     6  1  1.50        -6.8029   0.0000                                                             
     5  3  2.50        -1.3606   0.0000                                                             
   Description                                                                                      
     l       E           TYP  RCUT    TYP  RCUT                                                     
     2     -6.8782861     23  2.500                                                                 
     2     -8.2388687     23  2.500                                                                 
     0     -5.7601759     23  2.500                                                                 
     0     -0.8493231     23  2.500                                                                 
     1     -2.7211652     23  2.500                                                                 
     1     27.2116520     23  2.500                                                                 
     3     -1.3605826     23  2.500                                                                 
  local pseudopotential read in
  partial core-charges read in
  partial kinetic energy density read in
  atomic valenz-charges read in
  non local Contribution for L=           2  read in
    real space projection operators read in
  non local Contribution for L=           2  read in
    real space projection operators read in
  non local Contribution for L=           0  read in
    real space projection operators read in
  non local Contribution for L=           0  read in
    real space projection operators read in
  non local Contribution for L=           1  read in
    real space projection operators read in
  non local Contribution for L=           1  read in
    real space projection operators read in
    PAW grid and wavefunctions read in
 
   number of l-projection  operators is LMAX  =           6
   number of lm-projection operators is LMMAX =          18
 
 POTCAR:    PAW_PBE O 08Apr2002                   
   SHA256 =  818f92134a0a090dccd8ba1447fa70422a3b330e708bb4f08108d8ae51209ddf O/POTCAR              
   COPYR  = (c) Copyright 08Apr2002 Georg Kresse                                                    
   COPYR  = This file is part of the software VASP. Any use, copying, and all other rights are regul
   COPYR  = If you do not have a valid VASP license, you may not use, copy or distribute this file. 
   VRHFIN =O: s2p4                                                                                  
   LEXCH  = PE                                                                                      
   EATOM  =   432.3788 eV,   31.7789 Ry                                                             
                                                                                                    
   TITEL  = PAW_PBE O 08Apr2002                                                                     
   LULTRA =        F    use ultrasoft PP ?                                                          
   IUNSCR =        1    unscreen: 0-lin 1-nonlin 2-no                                               
   RPACOR =    1.200    partial core radius                                                         
   POMASS =   16.000; ZVAL   =    6.000    mass and valenz                                          
   RCORE  =    1.520    outmost cutoff radius                                                       
   RWIGS  =    1.550; RWIGS  =    0.820    wigner-seitz radius (au A)                               
   ENMAX  =  400.000; ENMIN  =  300.000 eV                                                          
   ICORE  =        2    local potential                                                             
   LCOR   =        T    correct aug charges                                                         
   LPAW   =        T    paw PP                                                                      
   EAUG   =  605.392                                                                                
   DEXC   =    0.000                                                                                
   RMAX   =    1.553    core radius for proj-oper                                                   
   RAUG   =    1.300    factor for augmentation sphere                                              
   RDEP   =    1.550    radius for radial grids                                                     
   RDEPT  =    1.329    core radius for aug-charge                                                  
                                                                                                    
   Atomic configuration                                                                             
    4 entries                                                                                       
     n  l   j            E        occ.                                                              
     1  0  0.50      -514.6923   2.0000                                                             
     2  0  0.50       -23.9615   2.0000                                                             
     2  1  0.50        -9.0305   4.0000                                                             
     3  2  1.50        -9.5241   0.0000                                                             
   Description                                                                                      
     l       E           TYP  RCUT    TYP  RCUT                                                     
     0    -23.9615318     23  1.200                                                                 
     0     -9.5240782     23  1.200                                                                 
     1     -9.0304911     23  1.520                                                                 
     1      8.1634956     23  1.520                                                                 
     2     -9.5240782      7  1.500                                                                 
  local pseudopotential read in
  partial core-charges read in
  partial kinetic energy density read in
  kinetic energy density of atom read in
  atomic valenz-charges read in
  non local Contribution for L=           0  read in
    real space projection operators read in
  non local Contribution for L=           0  read in
    real space projection operators read in
  non local Contribution for L=           1  read in
    real space projection operators read in
  non local Contribution for L=           1  read in
    real space projection operators read in
    PAW grid and wavefunctions read in
 
   number of l-projection  operators is LMAX  =           4
   number of lm-projection operators is LMMAX =           8
 
 POTCAR:    PAW_PBE Sr_sv 07Sep2000               
   SHA256 =  a8389d3481648516ee67182ee030b298d280b37e29cbbf2d8595f040d757c710 Sr_sv/POTCAR          
   COPYR  = (c) Copyright 07Sep2000 Georg Kresse                                                    
   COPYR  = This file is part of the software VASP. Any use, copying, and all other rights are regul
   COPYR  = If you do not have a valid VASP license, you may not use, copy or distribute this file. 
   VRHFIN =Sr: 4s4p5s                                                                               
   LEXCH  = PE                                                                                      
   EATOM  =   843.0319 eV,   61.9611 Ry                                                             
                                                                                                    
   TITEL  = PAW_PBE Sr_sv 07Sep2000                                                                 
   LULTRA =        F    use ultrasoft PP ?                                                          
   IUNSCR =        1    unscreen: 0-lin 1-nonlin 2-no                                               
   RPACOR =    2.200    partial core radius                                                         
   POMASS =   87.620; ZVAL   =   10.000    mass and valenz                                          
   RCORE  =    2.500    outmost cutoff radius                                                       
   RWIGS  =    4.040; RWIGS  =    2.138    wigner-seitz radius (au A)                               
   ENMAX  =  229.353; ENMIN  =  172.014 eV                                                          
   RCLOC  =    2.201    cutoff for local pot                                                        
   LCOR   =        T    correct aug charges                                                         
   LPAW   =        T    paw PP                                                                      
   EAUG   =  366.804                                                                                
   DEXC   =    0.000                                                                                
   RMAX   =    2.547    core radius for proj-oper                                                   
   RAUG   =    1.300    factor for augmentation sphere                                              
   RDEP   =    2.562    radius for radial grids                                                     
   RDEPT  =    2.128    core radius for aug-charge                                                  
                                                                                                    
   Atomic configuration                                                                             
   10 entries                                                                                       
     n  l   j            E        occ.                                                              
     1  0  0.50    -15934.8930   2.0000                                                             
     2  0  0.50     -2157.6250   2.0000                                                             
     2  1  1.50     -1917.0034   6.0000                                                             
     3  0  0.50      -333.7288   2.0000                                                             
     3  1  1.50      -256.0992   6.0000                                                             
     3  2  2.50      -127.9971  10.0000                                                             
     4  0  0.50       -40.8953   2.0000                                                             
     5  0  0.50        -3.5257   1.9990                                                             
     4  1  1.50       -22.8179   6.0000                                                             
     4  2  1.50        -1.2815   0.0010                                                             
   Description                                                                                      
     l       E           TYP  RCUT    TYP  RCUT                                                     
     0    -40.8953213     23  2.480                                                                 
     0     -3.5257161     23  2.480                                                                 
     1    -22.8178632     23  2.500                                                                 
     1    -24.1784458     23  2.500                                                                 
     2     -1.2814598     23  2.500                                                                 
     2      0.2279365     23  2.500                                                                 
  local pseudopotential read in
  partial core-charges read in
  partial kinetic energy density read in
  atomic valenz-charges read in
  non local Contribution for L=           0  read in
    real space projection operators read in
  non local Contribution for L=           0  read in
    real space projection operators read in
  non local Contribution for L=           1  read in
    real space projection operators read in
  non local Contribution for L=           1  read in
    real space projection operators read in
  non local Contribution for L=           2  read in
    real space projection operators read in
  non local Contribution for L=           2  read in
    real space projection operators read in
    PAW grid and wavefunctions read in
 
   number of l-projection  operators is LMAX  =           6
   number of lm-projection operators is LMMAX =          18
 
 POTCAR:    PAW_PBE Ti_sv 26Sep2005               
   SHA256 =  4d747badb5a5ea28d858fbac70885b3f8929d6fd9e5b0dbe1ecb9878dc164da1 Ti_sv/POTCAR          
   COPYR  = (c) Copyright 26Sep2005 Georg Kresse                                                    
   COPYR  = This file is part of the software VASP. Any use, copying, and all other rights are regul
   COPYR  = If you do not have a valid VASP license, you may not use, copy or distribute this file. 
   VRHFIN =Ti: 3p4s3d                                                                               
   LEXCH  = PE                                                                                      
   EATOM  =  1588.0892 eV,  116.7213 Ry                                                             
                                                                                                    
   TITEL  = PAW_PBE Ti_sv 26Sep2005                                                                 
   LULTRA =        F    use ultrasoft PP ?                                                          
   IUNSCR =        1    unscreen: 0-lin 1-nonlin 2-no                                               
   RPACOR =    2.000    partial core radius                                                         
   POMASS =   47.880; ZVAL   =   12.000    mass and valenz                                          
   RCORE  =    2.300    outmost cutoff radius                                                       
   RWIGS  =    2.300; RWIGS  =    1.217    wigner-seitz radius (au A)                               
   ENMAX  =  274.610; ENMIN  =  205.957 eV                                                          
   ICORE  =        3    local potential                                                             
   LCOR   =        T    correct aug charges                                                         
   LPAW   =        T    paw PP                                                                      
   EAUG   =  482.848                                                                                
   RMAX   =    2.348    core radius for proj-oper                                                   
   RAUG   =    1.300    factor for augmentation sphere                                              
   RDEP   =    2.381    radius for radial grids                                                     
   RDEPT  =    1.930    core radius for aug-charge                                                  
                                                                                                    
   Atomic configuration                                                                             
    8 entries                                                                                       
     n  l   j            E        occ.                                                              
     1  0  0.50     -4865.3608   2.0000                                                             
     2  0  0.50      -533.1368   2.0000                                                             
     2  1  1.50      -440.5031   6.0000                                                             
     3  0  0.50       -59.3186   2.0000                                                             
     4  0  0.50        -3.7291   1.0000                                                             
     3  1  1.50       -35.7012   6.0000                                                             
     3  2  2.50        -1.9157   3.0000                                                             
     4  3  2.50        -1.3606   0.0000                                                             
   Description                                                                                      
     l       E           TYP  RCUT    TYP  RCUT                                                     
     0    -59.3185931     23  1.800                                                                 
     0     -3.7290822     23  2.300                                                                 
     1    -35.7012045     23  2.300                                                                 
     1     -1.3605826     23  2.300                                                                 
     2     -1.9156920     23  2.300                                                                 
     2     -0.0236318     23  2.300                                                                 
     3     -1.3605826     23  2.300                                                                 
  local pseudopotential read in
  partial core-charges read in
  partial kinetic energy density read in
  atomic valenz-charges read in
  non local Contribution for L=           0  read in
    real space projection operators read in
  non local Contribution for L=           0  read in
    real space projection operators read in
  non local Contribution for L=           1  read in
    real space projection operators read in
  non local Contribution for L=           1  read in
    real space projection operators read in
  non local Contribution for L=           2  read in
    real space projection operators read in
  non local Contribution for L=           2  read in
    real space projection operators read in
    PAW grid and wavefunctions read in
 
   number of l-projection  operators is LMAX  =           6
   number of lm-projection operators is LMMAX =          18
 
 POTCAR:    PAW_PBE H 15Jun2001                   
   SHA256 =  030f79b5d3ab3cf0e668861823c8fb652ff669f3e15e46930bd03bfd63a607b6 H/POTCAR              
   COPYR  = (c) Copyright 15Jun2001 Georg Kresse                                                    
   COPYR  = This file is part of the software VASP. Any use, copying, and all other rights are regul
   COPYR  = If you do not have a valid VASP license, you may not use, copy or distribute this file. 
   VRHFIN =H: ultrasoft test                                                                        
   LEXCH  = PE                                                                                      
   EATOM  =    12.4884 eV,    0.9179 Ry                                                             
                                                                                                    
   TITEL  = PAW_PBE H 15Jun2001                                                                     
   LULTRA =        F    use ultrasoft PP ?                                                          
   IUNSCR =        0    unscreen: 0-lin 1-nonlin 2-no                                               
   RPACOR =    0.000    partial core radius                                                         
   POMASS =    1.000; ZVAL   =    1.000    mass and valenz                                          
   RCORE  =    1.100    outmost cutoff radius                                                       
   RWIGS  =    0.700; RWIGS  =    0.370    wigner-seitz radius (au A)                               
   ENMAX  =  250.000; ENMIN  =  200.000 eV                                                          
   RCLOC  =    0.701    cutoff for local pot                                                        
   LCOR   =        T    correct aug charges                                                         
   LPAW   =        T    paw PP                                                                      
   EAUG   =  400.000                                                                                
   RMAX   =    1.123    core radius for proj-oper                                                   
   RAUG   =    1.200    factor for augmentation sphere                                              
   RDEP   =    1.112    radius for radial grids                                                     
   RDEPT  =    0.926    core radius for aug-charge                                                  
                                                                                                    
   Atomic configuration                                                                             
    2 entries                                                                                       
     n  l   j            E        occ.                                                              
     1  0  0.50        -6.4927   1.0000                                                             
     2  1  0.50        -3.4015   0.0000                                                             
   Description                                                                                      
     l       E           TYP  RCUT    TYP  RCUT                                                     
     0     -6.4927494     23  1.100                                                                 
     0      6.8029130     23  1.100                                                                 
     1     -4.0817478     23  1.100                                                                 
  local pseudopotential read in
  atomic valenz-charges read in
  non local Contribution for L=           0  read in
    real space projection operators read in
  non local Contribution for L=           0  read in
    real space projection operators read in
  non local Contribution for L=           1  read in
    real space projection operators read in
    PAW grid and wavefunctions read in
 
   number of l-projection  operators is LMAX  =           3
   number of lm-projection operators is LMMAX =           5
 
 Optimization of the real space projectors (new method)

 maximal supplied QI-value         = 15.12
 optimisation between [QCUT,QGAM] = [ 11.34, 22.83] = [ 36.00,145.93] Ry 
 Optimized for a Real-space Cutoff    1.39 Angstroem

   l    n(q)    QCUT    max X(q) W(low)/X(q) W(high)/X(q)  e(spline) 
   2      9    11.338    60.898    0.39E-03    0.42E-03    0.21E-06
   2      9    11.338    58.894    0.40E-03    0.42E-03    0.22E-06
   0      9    11.338   109.617    0.13E-03    0.20E-04    0.13E-06
   0      9    11.338    75.026    0.13E-03    0.20E-04    0.13E-06
   1      9    11.338    16.344    0.33E-04    0.24E-03    0.18E-06
   1      9    11.338    10.160    0.26E-04    0.19E-03    0.15E-06
 Optimization of the real space projectors (new method)

 maximal supplied QI-value         = 24.76
 optimisation between [QCUT,QGAM] = [ 11.39, 22.77] = [ 36.31,145.25] Ry 
 Optimized for a Real-space Cutoff    1.00 Angstroem

   l    n(q)    QCUT    max X(q) W(low)/X(q) W(high)/X(q)  e(spline) 
   0      7    11.387    20.381    0.39E-03    0.13E-02    0.15E-06
   0      7    11.387    15.268    0.42E-03    0.14E-02    0.17E-06
   1      6    11.387     5.964    0.41E-03    0.11E-02    0.17E-06
   1      6    11.387     5.382    0.39E-03    0.87E-03    0.15E-06
 Optimization of the real space projectors (new method)

 maximal supplied QI-value         = 15.12
 optimisation between [QCUT,QGAM] = [ 11.34, 22.83] = [ 36.00,145.93] Ry 
 Optimized for a Real-space Cutoff    1.56 Angstroem

   l    n(q)    QCUT    max X(q) W(low)/X(q) W(high)/X(q)  e(spline) 
   0     11    11.338    11.565    0.26E-04    0.80E-05    0.70E-07
   0     11    11.338    10.214    0.41E-04    0.15E-04    0.15E-06
   1     10    11.338   189.983    0.18E-03    0.52E-04    0.42E-06
   1     10    11.338   193.105    0.19E-03    0.52E-04    0.42E-06
   2     10    11.338   115.941    0.22E-03    0.42E-03    0.43E-06
   2     10    11.338    76.444    0.21E-03    0.41E-03    0.42E-06
 Optimization of the real space projectors (new method)

 maximal supplied QI-value         = 16.25
 optimisation between [QCUT,QGAM] = [ 11.38, 22.75] = [ 36.24,144.96] Ry 
 Optimized for a Real-space Cutoff    1.27 Angstroem

   l    n(q)    QCUT    max X(q) W(low)/X(q) W(high)/X(q)  e(spline) 
   0      9    11.376    12.277    0.53E-04    0.25E-04    0.25E-07
   0      9    11.376    11.419    0.89E-04    0.67E-05    0.35E-07
   1      8    11.376     4.010    0.13E-03    0.11E-03    0.29E-07
   1      8    11.376     6.182    0.94E-04    0.19E-03    0.11E-06
   2      8    11.376    47.177    0.13E-03    0.88E-03    0.24E-06
   2      8    11.376    42.437    0.13E-03    0.86E-03    0.23E-06
 Optimization of the real space projectors (new method)

 maximal supplied QI-value         = 34.20
 optimisation between [QCUT,QGAM] = [ 11.29, 22.57] = [ 35.68,142.71] Ry 
 Optimized for a Real-space Cutoff    1.16 Angstroem

   l    n(q)    QCUT    max X(q) W(low)/X(q) W(high)/X(q)  e(spline) 
   0      8    11.287    19.460    0.40E-03    0.73E-03    0.16E-06
   0      8    11.287    12.209    0.38E-03    0.70E-03    0.15E-06
   1      7    11.287     4.655    0.22E-03    0.25E-04    0.22E-06
 -----------------------------------------------------------------------------
|                                                                             |
|               ----> ADVICE to this user running VASP <----                  |
|                                                                             |
|     You enforced a specific xc type in the INCAR file but a different       |
|     type was found in the POTCAR file.                                      |
|     I HOPE YOU KNOW WHAT YOU ARE DOING!                                     |
|                                                                             |
 -----------------------------------------------------------------------------

  PAW_PBE Au 04Oct2007                  :
 energy of atom  1       EATOM= -926.0867
 kinetic energy error for atom=    0.0042 (will be added to EATOM!!)
  PAW_PBE O 08Apr2002                   :
 energy of atom  2       EATOM= -432.3788
 kinetic energy error for atom=    0.0224 (will be added to EATOM!!)
  PAW_PBE Sr_sv 07Sep2000               :
 energy of atom  3       EATOM= -843.0319
 kinetic energy error for atom=    0.0012 (will be added to EATOM!!)
  PAW_PBE Ti_sv 26Sep2005               :
 energy of atom  4       EATOM=-1588.0892
 kinetic energy error for atom=    0.0046 (will be added to EATOM!!)
  PAW_PBE H 15Jun2001                   :
 energy of atom  5       EATOM=  -12.4884
 kinetic energy error for atom=    0.0020 (will be added to EATOM!!)
 
 
 POSCAR: Au O  Sr Ti H
  positions in cartesian coordinates
  No initial velocities read in
 exchange correlation table for  LEXCH =       17
   RHO(1)=    0.500       N(1)  =     2000
   RHO(2)=  100.500       N(2)  =     4000

 VTST: version 4.1, (05/19/21)

 CHAIN: initializing optimizer
 
 OPT: Using VASP Dynamics algorithm
 CHAIN: Read ICHAIN            0
 
 POSCAR: Au O  Sr Ti H
  positions in cartesian coordinates
  No initial velocities read in
 


--------------------------------------------------------------------------------------------------------


 ion  position               nearest neighbor table
   1  0.718  0.526  0.754-  16 2.72  15 2.72  14 2.78  44 2.83   2 2.83  29 2.96  46 3.03
   2  0.624  0.568  0.704- 264 2.08  15 2.81   1 2.83  46 2.88  48 2.88  16 2.92  12 2.93  36 3.05
                            11 3.30   5 3.53 380 3.70
   3  0.719  0.259  0.692- 294 2.06 253 2.07  32 2.65  43 2.79  27 2.83 401 3.04 370 4.02 371 4.03

   4  0.293  0.746  0.698- 310 2.06 266 2.06   9 2.78  23 2.82  50 3.07  42 3.24  45 3.54 368 4.21
                           372 4.23
   5  0.512  0.603  0.777-  26 2.69  48 2.75  13 2.84  12 2.91  47 2.93  39 2.94  16 3.03   6 3.14
                            49 3.36  31 3.48   2 3.53
   6  0.577  0.724  0.793-  18 2.73  36 2.73  17 2.78  47 2.81  13 2.99  48 3.14   5 3.14  16 3.43

   7  0.550  0.384  0.829-  10 2.77  33 2.81  29 2.86  20 2.86  34 2.97  31 2.98  12 3.04  41 3.38

   8  0.241  0.468  0.709- 309 2.11  19 2.69  24 2.81  45 2.82  40 2.98  35 3.09 378 4.15
   9  0.284  0.661  0.765-  45 2.69  50 2.76  30 2.76   4 2.78  24 2.80
  10  0.603  0.288  0.787-   7 2.77  41 2.79  32 2.79  27 2.80  43 2.80  25 3.08  34 3.28
  11  0.515  0.484  0.678- 279 2.11 247 2.16  26 2.69  12 2.78  49 2.90  34 2.91 389 3.13   2 3.30
                            46 3.33 375 3.55  37 3.60 386 4.05
  12  0.562  0.486  0.763-  11 2.78  34 2.80  49 2.85  29 2.86  31 2.89   5 2.91   2 2.93  46 2.99
                            16 3.00   7 3.04
  13  0.463  0.695  0.830-  50 2.81  30 2.84   5 2.84  47 2.85  39 2.90  18 2.92   6 2.99
  14  0.765  0.432  0.706- 254 2.01  44 2.72   1 2.78  46 2.79  43 2.88 363 3.72 370 4.23
  15  0.733  0.616  0.694- 292 2.09 250 2.11  36 2.67   1 2.72   2 2.81  28 3.24 380 3.42 365 3.72

  16  0.635  0.584  0.800-   1 2.72  47 2.77  36 2.78  31 2.82   2 2.92  12 3.00   5 3.03  29 3.25
                             6 3.43
  17  0.595  0.785  0.713- 257 2.09   6 2.78  28 2.79  18 2.94  48 2.94  36 3.10 379 4.18 384 4.33

  18  0.484  0.779  0.757-   6 2.73  23 2.81  50 2.85  42 2.90  13 2.92  17 2.94  48 3.35
  19  0.349  0.500  0.697- 291 2.11   8 2.69  37 2.89  49 2.89  24 2.90  40 2.94  45 3.01  26 3.03
                           368 4.14 369 4.26
  20  0.431  0.372  0.815-  33 2.78  21 2.80   7 2.86  49 2.91  41 2.93  40 2.98  38 3.03  34 3.17

  21  0.373  0.299  0.755-  37 2.76  35 2.78  20 2.80  40 2.83  41 2.86  22 2.86
  22  0.442  0.228  0.697- 302 2.01 289 2.15  41 2.74  25 2.78  21 2.86  37 3.59 376 3.87 367 4.35

  23  0.391  0.817  0.707- 290 2.07  42 2.77  50 2.81  18 2.81   4 2.82 372 3.66 384 4.12
  24  0.290  0.537  0.778-   9 2.80   8 2.81  38 2.82  40 2.88  45 2.89  19 2.90  30 2.90
  25  0.556  0.209  0.712- 311 2.14  22 2.78  41 2.84  27 2.86  32 2.87  10 3.08 376 3.94
  26  0.453  0.580  0.702- 291 2.11   5 2.69  11 2.69  42 2.73  49 2.86  48 2.87  19 3.03 386 3.61

  27  0.614  0.320  0.698- 263 2.04  43 2.76  10 2.80   3 2.83  46 2.84  34 2.86  25 2.86  32 3.48
                           370 3.58 375 4.22
  28  0.705  0.758  0.688- 293 2.05 250 2.05  36 2.63  17 2.79 400 3.14  15 3.24 379 3.80 380 4.18

  29  0.656  0.441  0.812-  44 2.85  12 2.86  31 2.86   7 2.86  43 2.89   1 2.96  16 3.25  46 3.47

  30  0.368  0.618  0.820-   9 2.76  39 2.78  38 2.84  13 2.84  24 2.90  50 2.96
  31  0.571  0.510  0.857-  33 2.76  16 2.82  29 2.86  12 2.89  47 2.89  39 2.94   7 2.98   5 3.48

  32  0.665  0.193  0.752-   3 2.65  10 2.79  25 2.87  27 3.48  43 3.52
  33  0.473  0.451  0.879-  31 2.76  20 2.78  39 2.78   7 2.81  38 2.83
  34  0.516  0.377  0.734-  12 2.80  41 2.81  49 2.85  27 2.86  11 2.91   7 2.97  37 3.10  20 3.17
                            10 3.28 375 4.18
  35  0.283  0.338  0.703- 267 2.06  21 2.78  40 2.82  37 2.91   8 3.09 369 3.54 378 4.09
  36  0.669  0.681  0.749-  28 2.63  15 2.67   6 2.73  16 2.78   2 3.05  17 3.10  48 3.32
  37  0.398  0.382  0.690- 303 2.03 289 2.13  21 2.76  19 2.89  35 2.91  40 3.00  49 3.06  34 3.10
                           369 3.38  22 3.59  11 3.60 375 3.77
  38  0.376  0.493  0.833-  24 2.82  33 2.83  49 2.84  30 2.84  40 2.85  39 2.88  20 3.03
  39  0.463  0.573  0.864-  33 2.78  30 2.78  47 2.83  38 2.88  13 2.90  31 2.94   5 2.94
  40  0.326  0.414  0.769-  35 2.82  21 2.83  38 2.85  24 2.88  19 2.94   8 2.98  20 2.98  37 3.00
                            49 3.10
  41  0.487  0.269  0.775-  22 2.74  10 2.79  34 2.81  25 2.84  21 2.86  20 2.93   7 3.38
  42  0.423  0.698  0.699- 256 2.03  26 2.73  23 2.77  50 2.78  18 2.90  48 2.96   4 3.24 386 4.04
                           368 4.10
  43  0.700  0.346  0.756-  27 2.76   3 2.79  10 2.80  44 2.82  14 2.88  29 2.89  46 3.04  32 3.52

  44  0.774  0.430  0.796-  14 2.72  43 2.82   1 2.83  29 2.85
  45  0.256  0.592  0.695- 265 2.03 310 2.11   9 2.69   8 2.82  24 2.89  19 3.01   4 3.54 368 3.57
                           373 3.70
  46  0.648  0.442  0.697- 279 2.19  14 2.79  27 2.84   2 2.88  12 2.99   1 3.03  43 3.04  11 3.33
                            29 3.47 370 3.49
  47  0.565  0.639  0.861-  16 2.77   6 2.81  39 2.83  13 2.85  31 2.89   5 2.93
  48  0.544  0.665  0.702- 280 2.11   5 2.75  26 2.87   2 2.88  17 2.94  42 2.96   6 3.14  36 3.32
                            18 3.35 386 3.48
  49  0.443  0.475  0.756-  38 2.84  12 2.85  34 2.85  26 2.86  19 2.89  11 2.90  20 2.91  37 3.06
                            40 3.10   5 3.36
  50  0.373  0.738  0.778-   9 2.76  42 2.78  23 2.81  13 2.81  18 2.85  30 2.96   4 3.07
  51  0.250  0.188  0.454- 448 1.97 418 2.13 319 2.74 342 2.81 360 2.81 327 2.86
  52  0.749  0.938  0.455- 417 1.95 444 2.00 350 2.82 339 2.84 322 2.84 332 2.86
  53  0.749  0.689  0.457- 432 1.97 446 2.04 325 2.78 362 2.83 348 2.85 316 2.88
  54  0.749  0.439  0.456- 422 1.99 458 2.01 323 2.71 347 2.83 349 2.84 359 2.85
  55  0.750  0.190  0.456- 445 1.98 423 2.10 324 2.75 335 2.78 358 2.85 346 2.85
  56  0.417  0.936  0.454- 424 1.99 440 2.01 357 2.77 345 2.79 329 2.87 320 2.92
  57  0.417  0.685  0.455- 414 1.91 443 2.04 356 2.77 344 2.78 321 2.83 331 2.91
  58  0.417  0.435  0.454- 415 1.96 442 2.01 355 2.77 343 2.77 333 2.83 318 2.85
  59  0.085  0.687  0.453- 439 1.97 413 2.09 352 2.75 340 2.80 330 2.82 336 2.93
  60  0.084  0.937  0.454- 436 1.98 412 2.11 353 2.77 341 2.79 326 2.89 338 2.89
  61  0.083  0.437  0.453- 438 1.97 421 2.12 361 2.77 351 2.78 328 2.78 317 2.91
  62  0.083  0.187  0.454- 437 1.98 433 2.11 385 2.79 360 2.79 337 2.85 327 2.86
  63  0.916  0.812  0.454- 434 1.98 411 2.10 362 2.77 339 2.79 341 2.80 336 2.89
  64  0.916  0.562  0.454- 435 1.97 410 2.11 316 2.78 349 2.79 340 2.80 317 2.90
  65  0.251  0.439  0.455- 449 1.98 420 2.07 318 2.70 343 2.81 351 2.85 328 2.85
  66  0.917  0.063  0.453- 455 1.98 430 2.10 358 2.77 385 2.78 332 2.88 338 2.91
  67  0.916  0.313  0.453- 456 1.97 429 2.09 359 2.75 361 2.78 335 2.83 337 2.93
  68  0.417  0.187  0.454- 441 1.98 416 2.07 354 2.78 342 2.79 334 2.81 319 2.88
  69  0.252  0.687  0.456- 419 1.99 450 2.03 321 2.76 344 2.79 352 2.87 330 2.89
  70  0.916  0.938  0.454- 455 1.98 411 2.11 339 2.79 341 2.80 332 2.84 338 2.88
  71  0.583  0.189  0.455- 452 1.98 426 2.09 334 2.73 324 2.78 354 2.83 346 2.84
  72  1.000  0.125  0.499- 430 1.96 433 1.98 385 2.77 337 2.77 338 2.81 315 3.47
  73  0.583  0.810  0.455- 454 1.98 431 2.10 325 2.72 331 2.75 350 2.84 357 2.85
  74  1.000  0.373  0.498- 429 1.93 421 1.96 361 2.74 337 2.78 317 2.85
  75  1.000  0.627  0.498- 413 1.94 410 1.94 340 2.72 336 2.76 317 2.84
  76  0.334  0.126  0.499- 416 1.95 418 2.01 319 2.74 342 2.75 320 2.79 367 3.45
  77  0.000  0.875  0.499- 411 1.97 412 1.97 341 2.77 336 2.79 338 2.80
  78  0.333  0.874  0.499- 424 1.97 425 2.00 321 2.74 345 2.76 320 2.85 372 3.12
  79  0.666  0.126  0.500- 426 1.97 423 2.00 324 2.72 346 2.78 322 2.81 371 3.39
  80  0.336  0.625  0.504- 414 1.92 419 2.08 368 2.74 321 2.80 318 2.82 344 2.92
  81  0.334  0.378  0.503- 415 1.94 420 2.08 318 2.70 369 2.71 343 2.88 319 2.91
  82  0.665  0.379  0.503- 428 1.94 422 2.06 323 2.70 370 2.74 347 2.88 324 2.93
  83  0.915  0.687  0.453- 434 1.98 410 2.09 316 2.76 362 2.79 340 2.80 336 2.93
  84  0.916  0.437  0.454- 435 2.00 429 2.07 349 2.77 359 2.78 361 2.81 317 2.91
  85  0.917  0.188  0.455- 456 1.98 430 2.11 335 2.76 358 2.82 385 2.82 337 2.85
  86  0.583  0.937  0.454- 451 2.00 431 2.06 357 2.78 350 2.80 329 2.86 322 2.88
  87  0.583  0.686  0.455- 427 1.91 454 2.02 356 2.78 348 2.80 325 2.83 331 2.86
  88  0.582  0.439  0.456- 453 2.00 428 2.02 333 2.71 323 2.80 355 2.82 347 2.86
  89  0.250  0.936  0.454- 425 1.93 447 2.01 345 2.78 353 2.78 320 2.90 326 2.92
  90  0.665  0.626  0.503- 427 1.94 432 2.06 380 2.71 325 2.81 323 2.82 348 2.88
  91  0.585  0.562  0.455- 427 2.00 453 2.01 333 2.77 323 2.79 348 2.79 356 2.84
  92  0.583  0.063  0.454- 451 2.00 426 2.03 354 2.79 346 2.79 322 2.86 329 2.88
  93  0.917  0.687  0.361- 434 1.97 340 2.79 316 2.79
  94  0.917  0.437  0.361- 435 1.97 361 2.79 359 2.79
  95  0.917  0.188  0.361- 456 1.97 385 2.79 358 2.79
  96  0.583  0.938  0.361- 451 1.97 357 2.79 350 2.79
  97  0.583  0.687  0.361- 454 1.97 356 2.79 348 2.79
  98  0.583  0.437  0.361- 453 1.97 355 2.79 347 2.79
  99  0.583  0.188  0.361- 452 1.97 354 2.79 346 2.79
 100  0.250  0.938  0.361- 447 1.97 353 2.79 345 2.79
 101  0.917  0.938  0.361- 455 1.97 341 2.79 339 2.79
 102  0.250  0.687  0.361- 450 1.97 352 2.79 344 2.79
 103  0.250  0.188  0.361- 448 1.97 360 2.79 342 2.79
 104  0.750  0.938  0.361- 444 1.97 350 2.79 339 2.79
 105  0.750  0.687  0.361- 446 1.97 348 2.79 316 2.79
 106  0.750  0.437  0.361- 458 1.97 347 2.79 359 2.79
 107  0.750  0.188  0.361- 445 1.97 346 2.79 358 2.79
 108  0.417  0.938  0.361- 440 1.97 345 2.79 357 2.79
 109  0.417  0.687  0.361- 443 1.97 344 2.79 356 2.79
 110  0.417  0.437  0.361- 442 1.97 343 2.79 355 2.79
 111  0.250  0.437  0.361- 449 1.97 351 2.79 343 2.79
 112  0.083  0.063  0.361- 436 1.97 385 2.79 360 2.79
 113  0.083  0.312  0.361- 437 1.97 361 2.79 351 2.79
 114  0.083  0.563  0.361- 438 1.97 352 2.79 340 2.79
 115  0.917  0.312  0.361- 456 1.97 361 2.79 359 2.79
 116  0.917  0.063  0.361- 455 1.97 385 2.79 358 2.79
 117  0.583  0.812  0.361- 454 1.97 357 2.79 350 2.79
 118  0.583  0.563  0.361- 453 1.97 356 2.79 348 2.79
 119  0.583  0.312  0.361- 452 1.97 355 2.79 347 2.79
 120  0.583  0.063  0.361- 451 1.97 354 2.79 346 2.79
 121  0.250  0.812  0.361- 450 1.97 353 2.79 345 2.79
 122  0.250  0.563  0.361- 449 1.97 352 2.79 344 2.79
 123  0.250  0.312  0.361- 448 1.97 351 2.79 343 2.79
 124  0.250  0.063  0.361- 447 1.97 360 2.79 342 2.79
 125  0.750  0.812  0.361- 446 1.97 350 2.79 339 2.79
 126  0.750  0.563  0.361- 458 1.97 348 2.79 316 2.79
 127  0.750  0.312  0.361- 445 1.97 347 2.79 359 2.79
 128  0.750  0.063  0.361- 444 1.97 346 2.79 358 2.79
 129  0.417  0.812  0.361- 443 1.97 345 2.79 357 2.79
 130  0.417  0.563  0.361- 442 1.97 344 2.79 356 2.79
 131  0.417  0.312  0.361- 441 1.97 343 2.79 355 2.79
 132  0.417  0.063  0.361- 440 1.97 342 2.79 354 2.79
 133  0.083  0.812  0.361- 439 1.97 353 2.79 341 2.79
 134  0.417  0.188  0.361- 441 1.97 342 2.79 354 2.79
 135  0.083  0.938  0.361- 436 1.97 353 2.79 341 2.79
 136  0.083  0.687  0.361- 439 1.97 352 2.79 340 2.79
 137  0.083  0.437  0.361- 438 1.97 361 2.79 351 2.79
 138  0.833  0.500  0.407- 458 1.97 435 1.97 316 2.79 359 2.79 349 2.88
 139  0.833  0.750  0.407- 446 1.97 434 1.97 339 2.79 316 2.79 362 2.87
 140  0.084  0.062  0.454- 436 1.98 433 2.11 360 2.80 385 2.80 326 2.86 338 2.88
 141  0.083  0.312  0.454- 437 1.98 421 2.09 361 2.79 351 2.79 337 2.87 327 2.90
 142  0.084  0.562  0.454- 438 1.98 413 2.10 328 2.76 352 2.79 340 2.80 317 2.90
 143  0.084  0.812  0.454- 439 1.98 412 2.11 330 2.77 353 2.80 341 2.81 336 2.88
 144  0.417  0.062  0.455- 416 1.96 440 2.00 354 2.83 342 2.83 320 2.84 329 2.84
 145  0.416  0.311  0.457- 415 1.92 441 2.04 334 2.81 319 2.82 343 2.84 355 2.88
 146  0.416  0.559  0.458- 414 1.97 442 2.02 333 2.73 318 2.74 344 2.88 356 2.90
 147  0.417  0.810  0.455- 443 1.97 424 2.09 321 2.74 331 2.78 357 2.84 345 2.85
 148  0.750  0.064  0.453- 444 2.00 423 2.01 346 2.75 358 2.77 322 2.91 332 2.94
 149  0.747  0.314  0.455- 422 1.99 445 2.02 347 2.74 324 2.82 359 2.83 335 2.93
 150  0.748  0.564  0.454- 432 1.99 458 2.01 348 2.74 323 2.76 316 2.80 349 2.93
 151  0.749  0.813  0.453- 446 1.97 417 2.09 350 2.76 339 2.79 325 2.83 362 2.88
 152  0.251  0.062  0.454- 447 1.98 418 2.11 342 2.80 360 2.81 320 2.84 326 2.88
 153  0.915  0.309  0.545- 429 1.88 409 2.05 335 2.66 337 2.70 363 2.97 381 3.42
 154  0.252  0.314  0.454- 420 1.97 448 2.01 343 2.74 319 2.77 351 2.82 327 2.96
 155  0.252  0.565  0.454- 419 1.99 449 2.01 344 2.74 318 2.76 352 2.80 328 2.93
 156  0.250  0.811  0.455- 450 1.99 425 2.07 321 2.76 330 2.82 345 2.84 353 2.84
 157  0.833  0.250  0.407- 445 1.97 456 1.97 359 2.79 358 2.79 335 2.87
 158  0.584  0.315  0.454- 428 1.95 452 2.02 347 2.77 355 2.79 334 2.85 324 2.87
 159  0.833  0.000  0.407- 444 1.97 455 1.97 358 2.79 339 2.79 332 2.96
 160  0.500  0.500  0.407- 453 1.97 442 1.97 355 2.79 356 2.79 333 2.80
 161  0.083  0.188  0.361- 437 1.97 385 2.79 360 2.79
 162  0.000  0.000  0.407- 455 1.97 436 1.97 385 2.79 341 2.79 338 2.97
 163  0.000  0.250  0.407- 456 1.97 437 1.97 361 2.79 385 2.79 337 2.95
 164  0.000  0.500  0.407- 435 1.97 438 1.97 340 2.79 361 2.79 317 3.00
 165  0.000  0.750  0.407- 434 1.97 439 1.97 341 2.79 340 2.79 336 2.99
 166  0.333  0.000  0.407- 440 1.97 447 1.97 342 2.79 345 2.79 320 2.96
 167  0.333  0.250  0.407- 441 1.97 448 1.97 343 2.79 342 2.79 319 2.88
 168  0.333  0.500  0.407- 442 1.97 449 1.97 343 2.79 344 2.79 318 2.82
 169  0.333  0.750  0.407- 443 1.97 450 1.97 345 2.79 344 2.79 321 2.84
 170  0.667  0.000  0.407- 444 1.97 451 1.97 346 2.79 350 2.79 322 2.96
 171  0.667  0.250  0.407- 445 1.97 452 1.97 347 2.79 346 2.79 324 2.88
 172  0.667  0.500  0.407- 458 1.97 453 1.97 347 2.79 348 2.79 323 2.81
 173  0.667  0.750  0.407- 446 1.97 454 1.97 350 2.79 348 2.79 325 2.86
 174  0.167  0.000  0.407- 447 1.97 436 1.97 360 2.79 353 2.79 326 2.98
 175  0.167  0.250  0.407- 448 1.97 437 1.97 351 2.79 360 2.79 327 2.98
 176  0.167  0.500  0.407- 449 1.97 438 1.97 351 2.79 352 2.79 328 2.85
 177  0.167  0.750  0.407- 450 1.97 439 1.97 353 2.79 352 2.79 330 2.89
 178  0.500  0.000  0.407- 451 1.97 440 1.97 354 2.79 357 2.79 329 2.95
 179  0.500  0.250  0.407- 452 1.97 441 1.97 355 2.79 354 2.79 334 2.85
 180  0.500  0.750  0.407- 454 1.97 443 1.97 357 2.79 356 2.79 331 2.91
 181  0.167  0.124  0.499- 418 1.96 433 2.00 360 2.76 326 2.76 327 2.77
 182  0.917  0.060  0.545- 430 1.85 387 2.22 332 2.65 338 2.67 383 3.09 315 3.20
 183  0.168  0.873  0.500- 425 1.93 412 2.02 330 2.72 353 2.79 326 2.86 374 3.53
 184  0.252  0.188  0.547- 418 1.87 395 2.13 319 2.64 327 2.71 367 3.14 377 3.34
 185  0.748  0.934  0.548- 417 1.83 402 2.25 322 2.76 332 2.81 379 2.91 364 3.19
 186  0.752  0.681  0.553- 400 1.96 432 1.97 380 2.65 365 2.81 362 2.96 325 3.01
 187  0.752  0.435  0.550- 422 1.93 399 2.06 370 2.73 349 2.82 323 2.87 363 2.89
 188  0.423  0.444  0.546- 408 1.88 415 2.06 333 2.61 318 2.83 375 2.88 369 3.13
 189  0.423  0.688  0.547- 414 1.95 398 2.00 331 2.67 386 2.76 321 2.88 368 2.94
 190  0.749  0.183  0.551- 423 1.95 401 1.95 324 2.82 335 2.89 383 2.99 371 2.99
 191  0.416  0.937  0.546- 424 1.85 396 2.25 320 2.71 329 2.72 372 2.89 384 3.08
 192  0.084  0.938  0.546- 412 1.84 406 2.19 326 2.67 338 2.69 374 3.24 366 3.33
 193  0.416  0.191  0.547- 397 1.85 416 2.03 319 2.73 334 2.73 376 3.10 367 3.25
 194  0.087  0.690  0.545- 413 1.85 405 2.22 330 2.62 336 2.71 373 2.78
 195  0.082  0.438  0.545- 421 1.84 404 2.24 317 2.66 328 2.69 378 3.06 381 3.29
 196  0.084  0.188  0.546- 433 1.85 403 2.18 327 2.66 337 2.69 315 3.20 377 3.34
 197  0.499  0.126  0.499- 416 1.98 426 1.99 334 2.74 354 2.77 329 2.82 376 3.21
 198  1.000  0.499  0.594- 457 1.95 404 1.96 317 2.62 381 2.82 382 3.10
 199  1.000  0.752  0.592- 405 1.95 407 1.96 336 2.57 366 2.88 382 3.19
 200  0.335  0.254  0.593- 397 1.90 395 2.07 369 2.67 319 2.70 367 3.06
 201  0.334  0.000  0.592- 396 2.00 394 2.03 320 2.59 372 2.72 367 2.76
 202  1.000  0.998  0.592- 387 2.00 406 2.00 338 2.59 366 2.87 315 2.91
 203  0.999  0.248  0.592- 409 1.90 403 2.03 337 2.60 315 2.84 381 3.05
 204  0.333  0.496  0.591- 408 1.85 390 2.16 318 2.70 369 2.75 368 2.85
 205  0.336  0.740  0.591- 398 1.93 391 2.06 368 2.60 321 2.68 372 3.11
 206  0.663  0.247  0.591- 392 1.89 401 2.14 324 2.64 371 2.81 370 2.81
 207  0.666  0.001  0.592- 402 2.01 393 2.01 322 2.59 379 2.72 371 2.82
 208  0.666  0.742  0.590- 388 1.95 400 2.05 380 2.58 325 2.65 379 3.14
 209  0.667  0.494  0.591- 389 1.82 399 2.13 323 2.71 370 2.73 380 2.95
 210  0.167  0.999  0.592- 394 1.98 406 2.01 326 2.58 374 2.90 377 2.91
 211  0.168  0.249  0.594- 395 1.94 403 2.03 327 2.61 378 2.76 377 2.95
 212  0.171  0.750  0.595- 391 1.87 405 2.14 330 2.76 373 2.76 374 2.84
 213  0.248  0.436  0.549- 390 1.94 420 1.98 369 2.65 318 2.82 328 2.83 378 3.04
 214  0.165  0.503  0.588- 390 1.83 404 2.04 328 2.56 373 2.81 378 3.00
 215  0.249  0.683  0.552- 391 1.96 419 1.97 368 2.74 373 2.88 330 2.90 321 2.93
 216  0.580  0.186  0.549- 426 1.93 392 1.99 334 2.72 324 2.83 376 2.93 371 3.11
 217  0.916  0.811  0.546- 411 1.85 407 2.17 362 2.66 336 2.69 364 3.31 366 3.33
 218  0.917  0.562  0.545- 410 1.85 457 2.20 317 2.66 349 2.69 365 2.91
 219  0.581  0.561  0.549- 389 1.89 427 2.09 386 2.69 333 2.75 380 2.82 323 2.87
 220  0.586  0.815  0.551- 431 1.91 388 2.07 325 2.76 331 2.81 379 2.93 384 3.02
 221  0.583  0.312  0.546- 428 1.89 392 2.12 334 2.75 324 2.75 375 2.77 370 2.86
 222  0.582  0.063  0.546- 426 1.84 393 2.22 329 2.69 322 2.71 376 2.96 371 3.14
 223  0.253  0.813  0.551- 391 1.82 425 2.08 321 2.79 372 2.88 330 2.89 374 3.17
 224  0.252  0.559  0.544- 419 1.91 390 2.04 318 2.63 328 2.79 368 2.87 373 3.19
 225  0.250  0.314  0.546- 420 1.85 395 2.30 369 2.65 327 2.73 319 2.73 378 3.05
 226  0.251  0.063  0.547- 418 1.84 394 2.24 320 2.68 326 2.72 367 3.04 377 3.29
 227  0.748  0.808  0.545- 400 1.83 417 2.03 325 2.66 362 2.75 379 3.15 364 3.36
 228  0.746  0.558  0.544- 432 1.95 399 1.98 323 2.61 349 2.77 380 2.85 365 3.21
 229  0.414  0.812  0.548- 398 1.96 424 1.96 321 2.72 331 2.77 372 2.93 384 3.11
 230  0.750  0.059  0.544- 423 1.84 402 2.23 322 2.65 332 2.66 383 3.16 371 3.21
 231  0.747  0.311  0.548- 422 1.97 401 1.98 370 2.67 324 2.72 335 2.84 363 3.06
 232  0.416  0.320  0.553- 397 1.96 415 1.98 375 2.66 369 2.73 319 2.98 334 2.99
 233  0.420  0.565  0.555- 408 1.90 414 2.12 386 2.65 368 2.71 333 2.92 318 3.05
 234  0.417  0.065  0.547- 416 1.84 396 2.26 320 2.74 329 2.77 376 2.94 367 3.08
 235  0.085  0.813  0.547- 412 1.85 405 2.18 330 2.68 336 2.73 374 3.15 366 3.30
 236  0.083  0.564  0.546- 413 1.84 404 2.21 317 2.69 328 2.74 373 2.83
 237  0.085  0.313  0.547- 421 1.84 403 2.23 327 2.69 337 2.74 378 2.92 381 3.36
 238  0.083  0.063  0.547- 433 1.84 406 2.21 326 2.69 338 2.71 315 3.16 377 3.29
 239  0.916  0.937  0.547- 411 1.84 387 2.18 332 2.69 338 2.72 364 3.26 366 3.29
 240  0.913  0.688  0.546- 410 1.84 407 2.23 362 2.65 336 2.76 365 2.78
 241  0.584  0.938  0.546- 431 1.84 393 2.24 322 2.68 329 2.70 379 2.95 384 3.07
 242  0.915  0.184  0.549- 430 1.84 409 2.20 335 2.77 337 2.82 383 2.95 315 3.10
 243  0.916  0.435  0.547- 429 1.84 457 2.25 349 2.72 317 2.74 363 2.87 381 3.26
 244  0.576  0.436  0.552- 389 1.95 428 2.05 375 2.63 333 2.75 370 2.94 323 3.01
 245  0.580  0.687  0.547- 427 1.92 388 2.12 386 2.66 331 2.71 380 2.81 325 2.84
 246  0.252  0.937  0.545- 425 1.83 394 2.23 320 2.67 326 2.73 372 2.92 374 3.29
 247  0.498  0.504  0.609- 408 2.10  11 2.16 389 2.25 386 2.73 375 3.00 333 3.26
 248  0.499  0.253  0.590- 397 1.99 392 2.04 375 2.64 334 2.65 376 2.96
 249  0.500  0.000  0.591- 396 2.00 393 2.00 329 2.57 376 2.76 384 2.81
 250  0.754  0.694  0.657-  28 2.05  15 2.11 400 2.40 365 2.99 380 3.20
 251  0.748  0.937  0.641- 402 1.80 364 2.49 379 2.53
 252  0.253  0.186  0.641- 395 1.74 367 2.51 377 2.55
 253  0.746  0.195  0.647- 401 1.98   3 2.07 371 2.66 383 2.86
 254  0.756  0.437  0.639- 399 1.98  14 2.01 363 2.58 370 2.82
 255  0.417  0.935  0.640- 396 1.80 384 2.53 372 2.58
 256  0.421  0.676  0.634-  42 2.03 398 2.04 386 2.56 368 2.62
 257  0.590  0.811  0.646- 388 1.94  17 2.09 379 2.64 384 2.81
 258  0.916  0.063  0.638- 387 1.79 383 2.50 315 2.51
 259  0.913  0.564  0.641- 457 1.80 382 2.46 365 2.53
 260  0.916  0.314  0.638- 409 1.74 381 2.51 363 2.54
 261  0.915  0.813  0.641- 407 1.79 364 2.50 366 2.52
 262  0.582  0.066  0.640- 393 1.79 371 2.51 376 2.52
 263  0.583  0.320  0.634- 392 1.96  27 2.04 375 2.53 370 2.67
 264  0.591  0.565  0.640- 389 1.98   2 2.08 380 2.63 386 2.83
 265  0.247  0.574  0.629- 390 1.99  45 2.03 373 2.54 368 2.54
 266  0.262  0.798  0.647- 391 1.96   4 2.06 372 2.81 374 2.96
 267  0.249  0.316  0.642- 395 1.94  35 2.06 378 2.59 369 2.66
 268  0.251  0.060  0.642- 394 1.79 367 2.49 377 2.52
 269  0.917  0.563  0.361- 435 1.97 340 2.79 316 2.79
 270  0.500  0.374  0.500- 415 1.98 428 1.99 355 2.80 333 2.81 334 2.81 375 2.84
 271  0.500  0.873  0.501- 424 1.98 431 1.99 331 2.69 357 2.82 329 2.82 384 3.26
 272  0.500  0.621  0.500- 427 1.98 414 1.98 333 2.71 356 2.79 386 2.82 331 2.94
 273  0.832  0.623  0.500- 432 1.90 410 2.05 349 2.75 316 2.79 362 2.87 365 3.09
 274  0.833  0.874  0.499- 417 1.95 411 2.02 362 2.75 339 2.75 332 2.80
 275  0.832  0.373  0.500- 422 1.90 429 2.04 335 2.78 359 2.79 349 2.84 363 3.12
 276  0.833  0.125  0.500- 423 1.96 430 2.01 335 2.75 358 2.78 332 2.81 383 3.31
 277  0.166  0.376  0.498- 420 1.90 421 2.02 351 2.73 328 2.77 327 2.85 378 3.30
 278  0.168  0.624  0.500- 419 1.90 413 2.05 328 2.78 352 2.79 330 2.84 373 3.05
 279  0.582  0.439  0.646- 389 2.11  11 2.11  46 2.19 375 2.86 370 3.01
 280  0.580  0.685  0.639- 388 1.87  48 2.11 386 2.62 380 2.78
 281  0.914  0.188  0.645- 459 0.96 409 2.00 383 2.57 315 2.64
 282  0.582  0.936  0.639- 393 1.79 384 2.50 379 2.51
 283  0.830  0.751  0.593- 400 1.86 407 2.10 362 2.71 365 2.79 364 2.91
 284  0.832  0.250  0.591- 401 1.85 409 2.10 335 2.65 363 2.83 383 2.86
 285  0.833  0.504  0.589- 399 1.83 457 2.07 349 2.58 365 2.80 363 2.91
 286  0.833  0.997  0.592- 402 2.00 387 2.02 332 2.58 364 2.83 383 2.88
 287  0.501  0.756  0.593- 388 1.99 398 2.01 331 2.67 384 2.74 386 2.93
 288  0.418  0.065  0.640- 396 1.80 367 2.51 376 2.54
 289  0.427  0.305  0.655-  37 2.13  22 2.15 397 2.30 375 2.92 369 3.40
 290  0.412  0.813  0.639- 398 1.94  23 2.07 372 2.60 384 2.69
 291  0.397  0.551  0.652-  26 2.11  19 2.11 408 2.15 368 2.79 386 3.48
 292  0.752  0.571  0.634- 399 1.92  15 2.09 365 2.60 380 2.68
 293  0.741  0.810  0.640- 400 1.97  28 2.05 379 2.59 364 2.68
 294  0.747  0.313  0.640- 401 2.00   3 2.06 370 2.62 363 2.76
 295  0.751  0.068  0.637- 402 1.80 383 2.48 371 2.49
 296  0.082  0.313  0.640- 403 1.80 381 2.50 378 2.51
 297  0.666  0.874  0.499- 431 1.97 417 2.00 325 2.74 350 2.75 322 2.82 379 3.25
 298  0.087  0.563  0.642- 404 1.79 382 2.47 373 2.54
 299  0.082  0.062  0.640- 406 1.80 377 2.49 315 2.52
 300  0.087  0.437  0.639- 404 1.80 378 2.50 381 2.50
 301  0.082  0.186  0.641- 403 1.79 377 2.51 315 2.52
 302  0.419  0.188  0.640- 397 2.00  22 2.01 376 2.63 367 2.68
 303  0.415  0.419  0.630-  37 2.03 408 2.07 375 2.54 369 2.59
 304  0.085  0.936  0.641- 406 1.80 374 2.48 366 2.49
 305  0.084  0.687  0.640- 405 1.80 382 2.44 373 2.51
 306  0.912  0.439  0.640- 457 1.79 363 2.52 381 2.54
 307  0.915  0.688  0.640- 407 1.80 382 2.47 365 2.51
 308  0.916  0.936  0.642- 387 1.80 364 2.47 366 2.49
 309  0.240  0.442  0.642- 390 1.90   8 2.11 378 2.62 369 2.92
 310  0.254  0.677  0.664-   4 2.06  45 2.11 368 3.02 373 3.13
 311  0.579  0.191  0.644- 392 1.90  25 2.14 376 2.66 371 2.72
 312  0.252  0.930  0.637- 394 1.81 374 2.47 372 2.49
 313  0.084  0.812  0.642- 405 1.79 374 2.48 366 2.51
 314  0.917  0.812  0.361- 434 1.97 341 2.79 339 2.79
 315  0.999  0.124  0.615- 258 2.51 299 2.52 301 2.52 281 2.64 203 2.84 202 2.91 242 3.10 238 3.16
                           196 3.20 182 3.20 403 3.42 387 3.45 406 3.45  72 3.47 409 3.50 430 3.79
 316  0.833  0.625  0.407-  83 2.76  64 2.78 273 2.79 126 2.79 105 2.79 269 2.79  93 2.79 138 2.79
                           139 2.79 150 2.80  53 2.88 458 3.42 446 3.42 435 3.42 434 3.42 432 3.45
 317  1.000  0.500  0.507- 198 2.62 218 2.66 195 2.66 236 2.69 243 2.74  75 2.84  74 2.85 142 2.90
                            64 2.90  84 2.91  61 2.91 164 3.00 410 3.39 413 3.40 429 3.41 421 3.42
 318  0.331  0.499  0.501- 224 2.63  81 2.70 204 2.70  65 2.70 146 2.74 155 2.76 213 2.82 168 2.82
                            80 2.82 188 2.83  58 2.85 233 3.05 408 3.35 449 3.41 419 3.42 415 3.44
 319  0.330  0.248  0.503- 184 2.64 200 2.70 193 2.73 225 2.73  51 2.74  76 2.74 154 2.77 145 2.82
                            68 2.88 167 2.88  81 2.91 232 2.98 397 3.32 418 3.36 420 3.41 448 3.44
 320  0.333  0.001  0.506- 201 2.59 246 2.67 226 2.68 191 2.71 234 2.74  76 2.79 144 2.84 152 2.84
                            78 2.85  89 2.90  56 2.92 166 2.96 416 3.33 425 3.38 418 3.40 424 3.41
 321  0.334  0.751  0.502- 205 2.68 229 2.72  78 2.74 147 2.74 156 2.76  69 2.76 223 2.79  80 2.80
                            57 2.83 169 2.84 189 2.88 215 2.93 391 3.37 398 3.40 414 3.41 424 3.42
 322  0.666  0.000  0.506- 207 2.59 230 2.65 241 2.68 222 2.71 185 2.76  79 2.81 297 2.82  52 2.84
                            92 2.86  86 2.88 148 2.91 170 2.96 426 3.38 423 3.38 417 3.38 431 3.39
 323  0.668  0.500  0.501- 228 2.61  82 2.70 209 2.71  54 2.71 150 2.76  91 2.79  88 2.80 172 2.81
                            90 2.82 187 2.87 219 2.87 244 3.01 389 3.35 458 3.41 422 3.41 432 3.42
 324  0.667  0.248  0.503- 206 2.64 231 2.72  79 2.72  55 2.75 221 2.75  71 2.78 149 2.82 190 2.82
                           216 2.83 158 2.87 171 2.88  82 2.93 426 3.41 401 3.42 423 3.43 428 3.43
 325  0.665  0.752  0.502- 208 2.65 227 2.66  73 2.72 297 2.74 220 2.76  53 2.78  90 2.81 151 2.83
                            87 2.83 245 2.84 173 2.86 186 3.01 400 3.35 431 3.38 427 3.38 454 3.45
 326  0.166  0.001  0.506- 210 2.58 192 2.67 238 2.69 226 2.72 246 2.73 181 2.76 140 2.86 183 2.86
                           152 2.88  60 2.89  89 2.92 174 2.98 425 3.37 418 3.38 433 3.39 412 3.44
 327  0.166  0.248  0.506- 211 2.61 196 2.66 237 2.69 184 2.71 225 2.73 181 2.77 277 2.85  51 2.86
                            62 2.86 141 2.90 154 2.96 175 2.98 420 3.37 433 3.38 418 3.39 421 3.45
 328  0.163  0.500  0.502- 214 2.56 195 2.69 236 2.74 142 2.76 277 2.77 278 2.78  61 2.78 224 2.79
                           213 2.83  65 2.85 176 2.85 155 2.93 390 3.33 421 3.40 413 3.42 438 3.42
 329  0.500  0.999  0.505- 249 2.57 222 2.69 241 2.70 191 2.72 234 2.77 271 2.82 197 2.82 144 2.84
                            86 2.86  56 2.87  92 2.88 178 2.95 424 3.38 416 3.39 431 3.39 426 3.40
 330  0.165  0.751  0.503- 194 2.62 235 2.68 183 2.72 212 2.76 143 2.77 156 2.82  59 2.82 278 2.84
                           223 2.89 177 2.89  69 2.89 215 2.90 391 3.34 412 3.37 413 3.43 419 3.45
 331  0.501  0.753  0.504- 189 2.67 287 2.67 271 2.69 245 2.71  73 2.75 229 2.77 147 2.78 220 2.81
                            87 2.86 180 2.91  57 2.91 272 2.94 431 3.37 398 3.38 424 3.41 427 3.42
 332  0.834  0.999  0.506- 286 2.58 182 2.65 230 2.66 239 2.69 274 2.80 185 2.81 276 2.81  70 2.84
                            52 2.86  66 2.88 148 2.94 159 2.96 417 3.35 423 3.39 411 3.41 430 3.42
 333  0.501  0.500  0.500- 188 2.61  88 2.71 272 2.71 146 2.73 244 2.75 219 2.75  91 2.77 160 2.80
                           270 2.81  58 2.83 233 2.92 247 3.26 453 3.41 428 3.43 442 3.44 415 3.45
 334  0.501  0.248  0.502- 248 2.65 216 2.72  71 2.73 193 2.73 197 2.74 221 2.75 145 2.81 270 2.81
                            68 2.81 158 2.85 179 2.85 232 2.99 397 3.37 426 3.39 428 3.42 452 3.45
 335  0.835  0.248  0.503- 284 2.65 153 2.66 276 2.75  85 2.76 242 2.77  55 2.78 275 2.78  67 2.83
                           231 2.84 157 2.87 190 2.89 149 2.93 401 3.35 430 3.39 429 3.44 422 3.45
 336  0.000  0.750  0.507- 199 2.57 217 2.69 194 2.71 235 2.73 240 2.76  75 2.76  77 2.79 143 2.88
                            63 2.89  59 2.93  83 2.93 165 2.99 413 3.38 410 3.39 411 3.39 412 3.40
 337  0.001  0.249  0.505- 203 2.60 196 2.69 153 2.70 237 2.74  72 2.77  74 2.78 242 2.82  85 2.85
                            62 2.85 141 2.87  67 2.93 163 2.95 421 3.39 433 3.39 429 3.41 430 3.41
 338  0.000  1.000  0.506- 202 2.59 182 2.67 192 2.69 238 2.71 239 2.72  77 2.80  72 2.81  70 2.88
                           140 2.88  60 2.89  66 2.91 162 2.97 412 3.40 430 3.40 411 3.41 433 3.42
 339  0.833  0.875  0.407- 274 2.75 151 2.79 125 2.79 104 2.79 314 2.79 101 2.79 139 2.79 159 2.79
                            63 2.79  70 2.79  52 2.84 446 3.42 434 3.42 444 3.42 455 3.42 417 3.48
 340  0.000  0.625  0.407-  75 2.72 269 2.79  93 2.79 114 2.79 136 2.79 164 2.79 165 2.79  59 2.80
                            64 2.80  83 2.80 142 2.80 435 3.42 434 3.42 438 3.42 439 3.42 413 3.53
 341  0.000  0.875  0.407-  77 2.77 314 2.79 133 2.79 101 2.79 135 2.79 165 2.79 162 2.79  60 2.79
                            63 2.80  70 2.80 143 2.81 434 3.42 439 3.42 455 3.42 436 3.42 411 3.56
 342  0.333  0.125  0.407-  76 2.75 132 2.79 134 2.79 124 2.79 103 2.79 166 2.79 167 2.79  68 2.79
                           152 2.80  51 2.81 144 2.83 440 3.42 441 3.42 447 3.42 448 3.42 416 3.47
 343  0.333  0.375  0.407- 154 2.74  58 2.77 110 2.79 131 2.79 111 2.79 123 2.79 167 2.79 168 2.79
                            65 2.81 145 2.84  81 2.88 441 3.42 442 3.42 448 3.42 449 3.42 415 3.43
 344  0.333  0.625  0.407- 155 2.74  57 2.78 130 2.79 109 2.79 122 2.79 102 2.79 168 2.79 169 2.79
                            69 2.79 146 2.88  80 2.92 442 3.42 443 3.42 449 3.42 450 3.42 414 3.45
 345  0.333  0.875  0.407-  78 2.76  89 2.78  56 2.79 129 2.79 121 2.79 108 2.79 100 2.79 169 2.79
                           166 2.79 156 2.84 147 2.85 443 3.42 450 3.42 440 3.42 447 3.42 425 3.49
 346  0.667  0.125  0.407- 148 2.75  79 2.78 128 2.79 107 2.79 120 2.79  99 2.79 170 2.79 171 2.79
                            92 2.79  71 2.84  55 2.85 444 3.42 445 3.42 451 3.42 452 3.42 423 3.53
 347  0.667  0.375  0.407- 149 2.74 158 2.77 106 2.79 127 2.79  98 2.79 119 2.79 171 2.79 172 2.79
                            54 2.83  88 2.86  82 2.88 445 3.42 458 3.42 453 3.42 452 3.42 428 3.47
 348  0.667  0.625  0.407- 150 2.74 126 2.79 105 2.79 118 2.79  97 2.79 172 2.79 173 2.79  91 2.79
                            87 2.80  53 2.85  90 2.88 458 3.42 446 3.42 453 3.42 454 3.42 427 3.43
 349  0.836  0.500  0.503- 285 2.58 218 2.69 243 2.72 273 2.75  84 2.77 228 2.77  64 2.79 187 2.82
                            54 2.84 275 2.84 138 2.88 150 2.93 399 3.36 422 3.41 432 3.41 429 3.42
 350  0.667  0.875  0.407- 297 2.75 151 2.76 125 2.79 104 2.79 117 2.79  96 2.79 173 2.79 170 2.79
                            86 2.80  52 2.82  73 2.84 446 3.42 454 3.42 444 3.42 451 3.42 417 3.50
 351  0.167  0.375  0.407- 277 2.73  61 2.78 111 2.79 137 2.79 123 2.79 113 2.79 176 2.79 175 2.79
                           141 2.79 154 2.82  65 2.85 448 3.42 449 3.42 437 3.42 438 3.42 420 3.44
 352  0.167  0.625  0.407-  59 2.75 142 2.79 278 2.79 122 2.79 102 2.79 114 2.79 136 2.79 176 2.79
                           177 2.79 155 2.80  69 2.87 449 3.42 450 3.42 438 3.42 439 3.42 419 3.46
 353  0.167  0.875  0.407-  60 2.77  89 2.78 183 2.79 121 2.79 133 2.79 100 2.79 135 2.79 177 2.79
                           174 2.79 143 2.80 156 2.84 450 3.42 439 3.42 447 3.42 436 3.42 425 3.47
 354  0.500  0.125  0.407- 197 2.77  68 2.78 120 2.79  99 2.79 132 2.79 134 2.79 178 2.79 179 2.79
                            92 2.79 144 2.83  71 2.83 451 3.42 452 3.42 440 3.42 441 3.42 416 3.50
 355  0.500  0.375  0.407-  58 2.77 158 2.79  98 2.79 119 2.79 110 2.79 131 2.79 160 2.79 179 2.79
                           270 2.80  88 2.82 145 2.88 452 3.42 453 3.42 441 3.42 442 3.42 415 3.44
 356  0.500  0.625  0.407-  57 2.77  87 2.78 272 2.79 118 2.79  97 2.79 130 2.79 109 2.79 160 2.79
                           180 2.79  91 2.84 146 2.90 453 3.42 454 3.42 442 3.42 443 3.42 427 3.44
 357  0.500  0.875  0.407-  56 2.77  86 2.78 117 2.79 129 2.79  96 2.79 108 2.79 180 2.79 178 2.79
                           271 2.82 147 2.84  73 2.85 454 3.42 443 3.42 451 3.42 440 3.42 424 3.51
 358  0.833  0.125  0.407- 148 2.77  66 2.77 276 2.78 128 2.79 107 2.79 116 2.79  95 2.79 159 2.79
                           157 2.79  85 2.82  55 2.85 444 3.42 445 3.42 455 3.42 456 3.42 423 3.52
 359  0.833  0.375  0.407-  67 2.75  84 2.78 275 2.79 106 2.79 127 2.79  94 2.79 115 2.79 157 2.79
                           138 2.79 149 2.83  54 2.85 445 3.42 458 3.42 456 3.42 435 3.42 422 3.45
 360  0.167  0.125  0.407- 181 2.76 124 2.79 103 2.79 112 2.79 161 2.79 174 2.79 175 2.79  62 2.79
                           140 2.80  51 2.81 152 2.81 447 3.42 448 3.42 436 3.42 437 3.42 418 3.57
 361  0.000  0.375  0.407-  74 2.74  61 2.77  67 2.78  94 2.79 115 2.79 137 2.79 113 2.79 163 2.79
                           164 2.79 141 2.79  84 2.81 435 3.42 456 3.42 438 3.42 437 3.42 429 3.53
 362  0.836  0.751  0.503- 240 2.65 217 2.66 283 2.71 274 2.75 227 2.75  63 2.77  83 2.79  53 2.83
                           273 2.87 139 2.87 151 2.88 186 2.96 400 3.30 411 3.36 410 3.43 434 3.45
 363  0.836  0.375  0.604- 306 2.52 260 2.54 254 2.58 294 2.76 284 2.83 243 2.87 187 2.89 285 2.91
                           153 2.97 231 3.06 275 3.12 409 3.33 457 3.42 399 3.44 401 3.45 429 3.54
 364  0.832  0.876  0.620- 308 2.47 251 2.49 261 2.50 293 2.68 286 2.83 283 2.91 185 3.19 239 3.26
                           217 3.31 227 3.36 387 3.41 402 3.42 400 3.46 407 3.49 411 3.96 379 3.97
 365  0.839  0.628  0.603- 307 2.51 259 2.53 292 2.60 240 2.78 283 2.79 285 2.80 186 2.81 218 2.91
                           250 2.99 273 3.09 228 3.21 407 3.33 457 3.37 399 3.41 410 3.46 400 3.50
 366  1.000  0.875  0.622- 304 2.49 308 2.49 313 2.51 261 2.52 202 2.87 199 2.88 239 3.29 235 3.30
                           217 3.33 192 3.33 407 3.41 405 3.42 387 3.43 406 3.44 374 3.93 411 3.97
 367  0.332  0.120  0.614- 268 2.49 288 2.51 252 2.51 302 2.68 201 2.76 226 3.04 200 3.06 234 3.08
                           184 3.14 193 3.25 394 3.36 396 3.37 395 3.44  76 3.45 397 3.55 418 3.75
 368  0.334  0.624  0.595- 265 2.54 205 2.60 256 2.62 233 2.71  80 2.74 215 2.74 291 2.79 204 2.85
                           224 2.87 189 2.94 310 3.02 408 3.37 398 3.42 414 3.44 419 3.45 391 3.50
 369  0.326  0.374  0.593- 303 2.59 225 2.65 213 2.65 267 2.66 200 2.67  81 2.71 232 2.73 204 2.75
                           309 2.92 188 3.13 420 3.29  37 3.38 289 3.40 395 3.40 390 3.41 408 3.42
 370  0.671  0.372  0.594- 294 2.62 231 2.67 263 2.67 209 2.73 187 2.73  82 2.74 206 2.81 254 2.82
                           221 2.86 244 2.94 279 3.01 422 3.36 401 3.39 428 3.44 389 3.45 392 3.47
 371  0.666  0.124  0.612- 295 2.49 262 2.51 253 2.66 311 2.72 206 2.81 207 2.82 190 2.99 216 3.11
                           222 3.14 230 3.21  79 3.39 392 3.39 393 3.40 402 3.41 401 3.50 426 3.79
 372  0.334  0.879  0.603- 312 2.49 255 2.58 290 2.60 201 2.72 266 2.81 223 2.88 191 2.89 246 2.92
                           229 2.93 205 3.11  78 3.12 394 3.33 396 3.34 398 3.47 391 3.47 424 3.55
 373  0.159  0.627  0.601- 305 2.51 298 2.54 265 2.54 212 2.76 194 2.78 214 2.81 236 2.83 215 2.88
                           278 3.05 310 3.13 224 3.19 405 3.32 404 3.36 413 3.41 390 3.50 391 3.53
 374  0.166  0.873  0.618- 312 2.47 304 2.48 313 2.48 212 2.84 210 2.90 266 2.96 235 3.15 223 3.17
                           192 3.24 246 3.29 405 3.43 391 3.43 394 3.43 406 3.44 183 3.53 412 3.86
 375  0.502  0.371  0.595- 263 2.53 303 2.54 244 2.63 248 2.64 232 2.66 221 2.77 270 2.84 279 2.86
                           188 2.88 289 2.92 247 3.00 392 3.39 428 3.39 397 3.43 415 3.48 408 3.54
 376  0.500  0.122  0.606- 262 2.52 288 2.54 302 2.63 311 2.66 249 2.76 216 2.93 234 2.94 222 2.96
                           248 2.96 193 3.10 197 3.21 393 3.33 396 3.36 392 3.44 397 3.51 426 3.62
 377  0.167  0.123  0.622- 299 2.49 301 2.51 268 2.52 252 2.55 210 2.91 211 2.95 226 3.29 238 3.29
                           196 3.34 184 3.34 395 3.40 394 3.45 406 3.45 403 3.47 367 3.90 418 3.97
 378  0.163  0.372  0.608- 300 2.50 296 2.51 267 2.59 309 2.62 211 2.76 237 2.92 214 3.00 213 3.04
                           225 3.05 195 3.06 277 3.30 403 3.34 390 3.42 395 3.46 404 3.48 421 3.61
 379  0.665  0.881  0.607- 282 2.51 251 2.53 293 2.59 257 2.64 207 2.72 185 2.91 220 2.93 241 2.95
                           208 3.14 227 3.15 297 3.25 393 3.32 402 3.34 388 3.49 400 3.56 431 3.60
 380  0.666  0.627  0.593- 208 2.58 264 2.63 186 2.65 292 2.68  90 2.71 280 2.78 245 2.81 219 2.82
                           228 2.85 209 2.95 250 3.20 389 3.32 388 3.37 427 3.40 432 3.41  15 3.42
 381  1.000  0.379  0.622- 296 2.50 300 2.50 260 2.51 306 2.54 198 2.82 203 3.05 243 3.26 195 3.29
                           237 3.36 404 3.39 457 3.40 409 3.42 153 3.42 403 3.56 378 3.88 363 3.91
 382  1.000  0.624  0.640- 305 2.44 259 2.46 307 2.47 298 2.47 198 3.10 199 3.19 457 3.52 404 3.53
                           405 3.59 407 3.62 373 3.95 365 3.96 317 4.85 336 4.90
 383  0.835  0.124  0.610- 295 2.48 258 2.50 281 2.57 253 2.86 284 2.86 286 2.88 242 2.95 190 2.99
                           182 3.09 230 3.16 276 3.31 401 3.41 387 3.42 402 3.42 409 3.55 430 3.66
 384  0.501  0.877  0.610- 282 2.50 255 2.53 290 2.69 287 2.74 257 2.81 249 2.81 220 3.02 241 3.07
                           191 3.08 229 3.11 271 3.26 393 3.39 396 3.39 388 3.47 398 3.49 431 3.69
 385  0.000  0.125  0.407-  72 2.77  66 2.78  62 2.79 116 2.79  95 2.79 112 2.79 161 2.79 162 2.79
                           163 2.79 140 2.80  85 2.82 455 3.42 456 3.42 436 3.42 437 3.42 430 3.57
 386  0.504  0.625  0.594- 256 2.56 280 2.62 233 2.65 245 2.66 219 2.69 247 2.73 189 2.76 272 2.82
                           264 2.83 287 2.93 427 3.37 388 3.38 389 3.44 414 3.46 398 3.48  48 3.48
 387  0.917  0.998  0.603- 258 1.79 308 1.80 202 2.00 286 2.02 239 2.18 182 2.22 364 3.41 383 3.42
                           366 3.43 315 3.45 332 3.51 338 3.52
 388  0.584  0.750  0.600- 280 1.87 257 1.94 208 1.95 287 1.99 220 2.07 245 2.12 380 3.37 386 3.38
                           384 3.47 331 3.49 379 3.49 325 3.50
 389  0.590  0.501  0.594- 209 1.82 219 1.89 244 1.95 264 1.98 279 2.11 247 2.25  11 3.13 380 3.32
                           323 3.35 386 3.44 370 3.45 333 3.51 375 3.58
 390  0.242  0.498  0.594- 214 1.83 309 1.90 213 1.94 265 1.99 224 2.04 204 2.16 328 3.33 369 3.41
                           378 3.42 318 3.49 373 3.50 368 3.56
 391  0.249  0.753  0.592- 223 1.82 212 1.87 266 1.96 215 1.96 205 2.06 330 3.34 321 3.37 374 3.43
                           372 3.47 368 3.50 373 3.53
 392  0.584  0.247  0.597- 206 1.89 311 1.90 263 1.96 216 1.99 248 2.04 221 2.12 371 3.39 375 3.39
                           324 3.44 376 3.44 370 3.47 334 3.47
 393  0.583  0.001  0.604- 262 1.79 282 1.79 249 2.00 207 2.01 222 2.22 241 2.24 379 3.32 376 3.33
                           384 3.39 371 3.40 329 3.55 322 3.56
 394  0.249  0.998  0.604- 268 1.79 312 1.81 210 1.98 201 2.03 246 2.23 226 2.24 372 3.33 367 3.36
                           374 3.43 377 3.45 326 3.54 320 3.55
 395  0.249  0.246  0.604- 252 1.74 267 1.94 211 1.94 200 2.07 184 2.13 225 2.30 369 3.40 377 3.40
                           367 3.44 378 3.46 327 3.51 319 3.59
 396  0.417  0.000  0.605- 255 1.80 288 1.80 249 2.00 201 2.00 191 2.25 234 2.26 372 3.34 376 3.36
                           367 3.37 384 3.39 329 3.57 320 3.57
 397  0.415  0.249  0.591- 193 1.85 200 1.90 232 1.96 248 1.99 302 2.00 289 2.30 319 3.32 334 3.37
                           375 3.43 369 3.49 376 3.51 367 3.55
 398  0.416  0.750  0.594- 205 1.93 290 1.94 229 1.96 189 2.00 287 2.01 256 2.04 331 3.38 321 3.40
                           368 3.42 372 3.47 386 3.48 384 3.49
 399  0.756  0.503  0.596- 285 1.83 292 1.92 228 1.98 254 1.98 187 2.06 209 2.13 349 3.36 365 3.41
                           363 3.44 380 3.49 323 3.52 370 3.55
 400  0.752  0.753  0.591- 227 1.83 283 1.86 186 1.96 293 1.97 208 2.05 250 2.40  28 3.14 362 3.30
                           325 3.35 364 3.46 380 3.47 365 3.50 379 3.56
 401  0.754  0.248  0.594- 284 1.85 190 1.95 231 1.98 253 1.98 294 2.00 206 2.14   3 3.04 335 3.35
                           370 3.39 383 3.41 324 3.42 363 3.45 371 3.50
 402  0.750  0.000  0.604- 295 1.80 251 1.80 286 2.00 207 2.01 230 2.23 185 2.25 379 3.34 371 3.41
                           364 3.42 383 3.42 322 3.55 332 3.56
 403  0.083  0.248  0.604- 301 1.79 296 1.80 211 2.03 203 2.03 196 2.18 237 2.23 378 3.34 315 3.42
                           377 3.47 327 3.52 337 3.54 381 3.56
 404  0.081  0.501  0.603- 298 1.79 300 1.80 198 1.96 214 2.04 236 2.21 195 2.24 373 3.36 381 3.39
                           317 3.48 378 3.48 382 3.53 328 3.60
 405  0.081  0.751  0.603- 313 1.79 305 1.80 199 1.95 212 2.14 235 2.18 194 2.22 373 3.32 366 3.42
                           374 3.43 336 3.47 382 3.59 330 3.59
 406  0.083  0.999  0.603- 304 1.80 299 1.80 202 2.00 210 2.01 192 2.19 238 2.21 366 3.44 374 3.44
                           315 3.45 377 3.45 326 3.51 338 3.52
 407  0.918  0.751  0.603- 261 1.79 307 1.80 199 1.96 283 2.10 217 2.17 240 2.23 365 3.33 366 3.41
                           336 3.48 364 3.49 362 3.59 382 3.62
 408  0.411  0.497  0.593- 204 1.85 188 1.88 233 1.90 303 2.07 247 2.10 291 2.15 318 3.35 368 3.37
                           369 3.42 333 3.50 375 3.54 386 3.59
 409  0.920  0.255  0.600- 260 1.74 203 1.90 281 2.00 153 2.05 284 2.10 242 2.20 363 3.33 381 3.42
                           337 3.43 315 3.50 335 3.54 383 3.55
 410  0.918  0.625  0.506- 240 1.84 218 1.85  75 1.94 273 2.05  83 2.09  64 2.11 336 3.39 317 3.39
                           349 3.42 362 3.43 365 3.46 340 3.54 316 3.59
 411  0.918  0.874  0.506- 239 1.84 217 1.85  77 1.97 274 2.02  63 2.10  70 2.11 362 3.36 336 3.39
                           338 3.41 332 3.41 341 3.56 339 3.59 364 3.96 366 3.97
 412  0.083  0.875  0.507- 192 1.84 235 1.85  77 1.97 183 2.02 143 2.11  60 2.11 330 3.37 336 3.40
                           338 3.40 326 3.44 341 3.58 353 3.59 374 3.86 366 3.97
 413  0.081  0.626  0.506- 236 1.84 194 1.85  75 1.94 278 2.05  59 2.09 142 2.10 336 3.38 317 3.40
                           373 3.41 328 3.42 330 3.43 340 3.53 352 3.59
 414  0.417  0.626  0.501-  57 1.91  80 1.92 189 1.95 146 1.97 272 1.98 233 2.12 321 3.41 368 3.44
                           356 3.44 344 3.45 333 3.45 331 3.46 386 3.46 318 3.48
 415  0.416  0.374  0.501- 145 1.92  81 1.94  58 1.96 270 1.98 232 1.98 188 2.06 343 3.43 318 3.44
                           355 3.44 333 3.45 334 3.46 319 3.48 375 3.48 369 3.49
 416  0.416  0.122  0.503- 234 1.84  76 1.95 144 1.96 197 1.98 193 2.03  68 2.07 320 3.33 329 3.39
                           334 3.46 319 3.47 342 3.47 354 3.50 376 3.69 367 3.88
 417  0.751  0.878  0.503- 185 1.83 274 1.95  52 1.95 297 2.00 227 2.03 151 2.09 332 3.35 322 3.38
                           325 3.47 339 3.48 362 3.48 350 3.50 379 3.73 364 4.00
 418  0.249  0.125  0.507- 226 1.84 184 1.87 181 1.96  76 2.01 152 2.11  51 2.13 319 3.36 326 3.38
                           327 3.39 320 3.40 360 3.57 342 3.59 367 3.75 377 3.97
 419  0.248  0.624  0.503- 278 1.90 224 1.91 215 1.97 155 1.99  69 1.99  80 2.08 318 3.42 328 3.43
                           368 3.45 330 3.45 352 3.46 321 3.48 344 3.52 373 3.63
 420  0.246  0.373  0.503- 225 1.85 277 1.90 154 1.97 213 1.98  65 2.07  81 2.08 369 3.29 327 3.37
                           319 3.41 351 3.44 328 3.45 318 3.46 343 3.53 378 3.72
 421  0.082  0.374  0.506- 237 1.84 195 1.84  74 1.96 277 2.02 141 2.09  61 2.12 337 3.39 328 3.40
                           317 3.42 327 3.45 361 3.55 351 3.59 378 3.61 381 3.98
 422  0.752  0.375  0.503- 275 1.90 187 1.93 231 1.97  54 1.99 149 1.99  82 2.06 370 3.36 349 3.41
                           323 3.41 335 3.45 359 3.45 324 3.49 347 3.52 363 3.63
 423  0.750  0.122  0.504- 230 1.84 190 1.95 276 1.96  79 2.00 148 2.01  55 2.10 322 3.38 332 3.39
                           324 3.43 335 3.45 358 3.52 346 3.53 383 3.74 371 3.80
 424  0.417  0.877  0.504- 191 1.85 229 1.96  78 1.97 271 1.98  56 1.99 147 2.09 329 3.38 320 3.41
                           331 3.41 321 3.42 345 3.51 357 3.51 372 3.55 384 3.74
 425  0.249  0.879  0.502- 246 1.83 183 1.93  89 1.93  78 2.00 156 2.07 223 2.08 326 3.37 320 3.38
                           353 3.47 330 3.48 321 3.48 345 3.49 372 3.63 374 3.98
 426  0.583  0.124  0.505- 222 1.84 216 1.93  79 1.97 197 1.99  92 2.03  71 2.09 322 3.38 334 3.39
                           329 3.40 324 3.41 354 3.53 346 3.53 376 3.62 371 3.79
 427  0.584  0.627  0.501-  87 1.91 245 1.92  90 1.94 272 1.98  91 2.00 219 2.09 386 3.37 325 3.38
                           380 3.40 331 3.42 348 3.43 356 3.44 333 3.45 323 3.48
 428  0.584  0.374  0.502- 221 1.89  82 1.94 158 1.95 270 1.99  88 2.02 244 2.05 375 3.39 334 3.42
                           324 3.43 333 3.43 370 3.44 323 3.46 347 3.47 355 3.48
 429  0.918  0.374  0.505- 243 1.84 153 1.88  74 1.93 275 2.04  84 2.07  67 2.09 317 3.41 337 3.41
                           349 3.42 335 3.44 361 3.53 363 3.54 359 3.57 381 3.99
 430  0.917  0.124  0.507- 242 1.84 182 1.85  72 1.96 276 2.01  66 2.10  85 2.11 335 3.39 338 3.40
                           337 3.41 332 3.42 385 3.57 358 3.59 383 3.66 315 3.79
 431  0.584  0.876  0.506- 241 1.84 220 1.91 297 1.97 271 1.99  86 2.06  73 2.10 331 3.37 325 3.38
                           322 3.39 329 3.39 350 3.55 357 3.57 379 3.60 384 3.69
 432  0.752  0.625  0.502- 273 1.90 228 1.95 186 1.97  53 1.97 150 1.99  90 2.06 380 3.41 349 3.41
                           323 3.42 316 3.45 362 3.45 325 3.51 348 3.51 365 3.65
[...]
  273            m_sumb_d                              0.371317                       42   5
  274          m_sumb_d                              0.000657                          7   4
  275        setdij_                               5.044659                          140   3
  276          m_sumb_d                              1.170679                        140   4
  277        set_dd_magatom                        0.000077                            7   3
  278        set_dd_paw                            0.090299                            7   3
  279          set_rsgf_all                          0.000012                          7   4
  280          m_sumb_d                              0.088106                         49   4
  281        strkin                                0.045388                            7   3
  282          m_sumb_d                              0.005807                          7   4
  283        strelo                                0.051499                            7   3
  284          m_sumb_d                              0.011920                         14   4
  285        strnlr                               66.998110                            7   3
  286          rspher_all                            2.241243                         63   4
  287          phaser                                0.000038                         63   4
  288          rpro_isp                             64.113195                         63   4
  289            fftwav_mpi                           53.493170                     8820   5
  290              fft3d_mpi                            45.887718                   8820   6
  291                fftbrc_mpi                           35.414886                 8820   7
  292                  fftbas_plan_mpi                      35.386925               8820   8
  293                    dfftw_execute                        16.837354            26460   9
  294                    map_forward                          12.953829            17640   9
  295                      map_gather                            0.981427           8820  10
  296                      m_alltoallv_z                         4.710616           8820  10
  297                      map_scatter                           2.513131           8820  10
  298            rpromu                               10.534503                     2205   5
  299              rpromu_gemm                           3.290028                 500535   6
  300              m_sumb_d                              1.338740                   8820   6
  301          m_sumb_d                              0.498856                          7   4
  302        m_sumb_d                              0.071992                           49   3
  303        fft3d_mpi                             4.765193                          497   3
  304          fftbrc_mpi                            4.548478                        497   4
  305            fftbas_plan_mpi                       4.546858                      497   5
  306              dfftw_execute                         0.629370                   1491   6
  307              map_forward                           1.902553                    490   6
  308                map_gather                            0.031974                  245   7
  309                m_alltoallv_z                         1.593330                  245   7
  310                map_scatter                           0.272032                  245   7
  311              map_backward                          1.655073                    504   6
  312                map_gather                            0.177535                  252   7
  313                m_alltoallv_z                         1.405351                  252   7
  314                map_scatter                           0.066992                  252   7
  315        ggaall_grid                           1.318991                            7   3
  316        forhar                                2.801289                            7   3
  317          m_sumb_d                              0.046812                          7   4
  318        strehar                               0.050953                            7   3
  319          m_sumb_d                              0.010449                          7   4
  320        m_bcast_d                             0.007042                           14   3
  321      potlok                               72.407879                             13   2
  322        fft3d_mpi                            26.338484                         2741   3
  323          fftbrc_mpi                           25.276517                       2741   4
  324            fftbas_plan_mpi                      25.267211                     2741   5
  325              dfftw_execute                         3.523273                   8223   6
  326              map_forward                           9.987998                   2754   6
  327                map_gather                            0.218301                 1390   7
  328                m_alltoallv_z                         8.168821                 1390   7
  329                map_scatter                           1.571697                 1390   7
  330              map_backward                          9.799079                   2728   6
  331                map_gather                            1.028721                 1364   7
  332                m_alltoallv_z                         8.380749                 1364   7
  333                map_scatter                           0.362706                 1364   7
  334        ggaall_grid                          18.900755                          237   3
  335        m_sumb_d                              0.460225                         1224   3
  336        fewald                                0.018322                           26   3
  337          rsp                                   0.016770                         26   4
  338          rcp                                   0.001277                         26   4
  339        pothar                                0.024237                           13   3
  340          m_sumb_d                              0.016845                         13   4
  341        m_bcast_d                             0.050413                           13   3
  342      potlok_metagga                        0.000086                             13   2
  343      set_dd_magatom                        0.000007                              7   2
  344      set_dd_paw                            0.159414                             13   2
  345        set_rsgf_all                          0.000024                           13   3
  346        m_sumb_d                              0.154762                           91   3
  347      m_sumb_d                             51.285957                           3518   2
  348      wavpre_noio                           1.626817                              6   2
  349        stufak                                1.546305                            6   3
  350      eddiag                              190.909196                              6   2
  351        overl                                 0.007984                            6   3
  352        redis_proj                            0.819900                           18   3
  353          m_alltoall_d                          0.812897                       2520   4
  354        fftwav_mpi                            5.830153                          840   3
  355          fft3d_mpi                             4.909944                        840   4
  356            fftbrc_mpi                            3.557575                      840   5
  357              fftbas_plan_mpi                       3.554770                    840   6
  358                dfftw_execute                         1.643615                 2520   7
  359                map_forward                           1.417510                 1680   7
  360                  map_gather                            0.147088                840   8
  361                  m_alltoallv_z                         0.450897                840   8
  362                  map_scatter                           0.264955                840   8
  363        hamilt_local                          4.011332                          840   3
  364          vhamil                                1.095294                        840   4
  365          kinhamil                              2.908143                        840   4
  366            fftext_mpi                            2.856433                      840   5
  367              fft3d_mpi                             2.772683                    840   6
  368                fftbrc_mpi                            2.309451                  840   7
  369                  fftbas_plan_mpi                       2.306786                840   8
  370                    dfftw_execute                         1.163921             2520   9
  371                    map_backward                          0.664462             1680   9
  372                      map_gather                            0.141066            840  10
  373                      m_alltoallv_z                         0.392829            840  10
  374                      map_scatter                           0.116941            840  10
  375        redis_pw                              1.634730                          846   3
  376          m_alltoall_d                          1.573098                       2520   4
  377        orth1                                 2.212378                          420   3
  378        m_sumb_d                              1.226225                            6   3
  379        shift_bands_between_low_high          0.000006                            6   3
  380        lincom                                1.770947                            6   3
 
 Flat profile
 ============
 
             routine name                   CPU           calls
 ---------------------------------------------------------------
 edwav                               12079.127398         762
 potlok                               1397.660686         775
 dfftw_execute                         728.068949     1300407
 lincom                                623.366664        2306
 m_alltoall_d                          615.146547     1829380
 m_alltoallv_z                         559.825321      435013
 m_sumb_d                              548.558544      764646
 orth1                                 520.639459      108080
 total_time                            481.779282           1
 fft3d_mpi                             409.236632      433469
 eddiag                                347.226100         394
 fftbas_plan_mpi                       314.383991      433469
 choleski                              260.724173         769
 fftwav_mpi                            259.318029      264558
 eccp                                  220.069855      213360
 ggaall_grid                           169.462377        1006
 map_forward                           161.102906      588766
 map_scatter                           133.547437      435013
 racc0                                 107.180320       53340
 pw_charge                              98.045321       89978
 rpro1                                  84.141551       53340
 map_gather                             83.549975      435013
 vhamil                                 72.849578       55160
 w1_dscal                               56.497144       53340
 orthch                                 31.243316         769
 setdij_                                27.183933         958
 augmentation_charge                    25.029153         769
 m_bcast_z                              13.039953        2381
 force_and_stress                       12.625403           7
 redis_pw                               11.449450      217112
 rpromu                                  8.535861        3185
 fftext_mpi                              8.277147      108500
 redis_proj                              5.355372      168462
 rpromu_gemm                             4.733214      722995
 overl                                   3.333627       54884
 rspher_all                              3.228505          92
 m_bcast_d                               3.091810         805
 soft_charge                             2.798031         769
 forloc                                  2.777666           7
 forhar                                  2.754477           7
 elmin_all                               2.467901           7
 map_backward                            2.351079      278172
 kinhamil                                2.291749       55160
 stufak                                  1.807401           7
 densta                                  1.424147         770
 fftbrc_mpi                              1.365616      433469
 rsp                                     1.058057        1557
 depsum                                  0.862456         769
 hamilt_local                            0.457634       55160
 pothar                                  0.443273         775
 set_dd_paw                              0.400886         782
 set_charge                              0.357241         769
 fft_gq                                  0.220169         769
 rpro_isp                                0.164335          91
 strnlr                                  0.144778           7
 fewald                                  0.094024        1557
 wavpre_noio                             0.080511           6
 rcp                                     0.078558        1557
 strehar                                 0.040504           7
 strkin                                  0.039581           7
 strelo                                  0.039579           7
 fornlr                                  0.039122           7
 redis_pw_all                            0.009188         762
 potlok_metagga                          0.003612         775
 redis_pw_over_bands                     0.002895         775
 fordep                                  0.001927           7
 set_rsgf_all                            0.001520         782
 brgrid                                  0.000790           1
 phaser                                  0.000374         472
 crpa_reader                             0.000289           1
 proall                                  0.000139           7
 rotate_active_occupied_orbital          0.000124           7
 set_dd_magatom                          0.000084          14
 vectorpot                               0.000028           1
 shift_bands_between_low_high            0.000019          13
 ---------------------------------------------------------------
  summed up times    20513.2147452831     
 
 Accumulative profile
 ====================
 
             routine name                   CPU           calls
 ---------------------------------------------------------------
 total_time                          20463.423898           1
 elmin_all                           19507.089293           7
 edwav                               16150.883607         762
 fft3d_mpi                            2343.641059      433469
 potlok                               2133.442235         775
 fftbrc_mpi                           1934.404427      433469
 fftbas_plan_mpi                      1933.038811      433469
 fftwav_mpi                           1671.284339      264558
 orthch                                911.559325         769
 eddiag                                766.960623         394
 dfftw_execute                         728.068949     1300407
 set_charge                            677.199691         769
 map_forward                           651.777796      588766
 soft_charge                           638.992811         769
 lincom                                623.366664        2306
 m_alltoall_d                          615.146547     1829380
 m_alltoallv_z                         559.825321      435013
 m_sumb_d                              548.558544      764646
 orth1                                 520.639459      108080
 fftext_mpi                            366.892589      108500
 redis_pw                              355.121541      217112
 map_backward                          288.598922      278172
 redis_proj                            276.829828      168462
 hamilt_local                          260.984505       55160
 choleski                              260.724173         769
 eccp                                  233.795349      213360
 kinhamil                              187.677292       55160
 ggaall_grid                           169.462377        1006
 map_scatter                           133.547437      435013
 racc0                                 132.008944       53340
 force_and_stress                      120.582210           7
 pw_charge                              98.045321       89978
 rpro1                                  95.506813       53340
 rpro_isp                               92.686977          91
 map_gather                             83.549975      435013
 vhamil                                 72.849578       55160
 strnlr                                 66.998110           7
 w1_dscal                               56.497144       53340
 redis_pw_over_bands                    49.137796         775
 redis_pw_all                           49.134900         762
 setdij_                                36.292334         958
 augmentation_charge                    36.182432         769
 fornlr                                 22.369036           7
 rpromu                                 15.192574        3185
 m_bcast_z                              13.039953        2381
 set_dd_paw                             10.101495         782
 proall                                  7.169356           7
 densta                                  5.418227         770
 fft_gq                                  4.834124         769
 rpromu_gemm                             4.733214      722995
 overl                                   3.333627       54884
 rspher_all                              3.228505          92
 m_bcast_d                               3.091810         805
 forloc                                  2.807393           7
 forhar                                  2.801289           7
 stufak                                  1.807401           7
 depsum                                  1.667206         769
 wavpre_noio                             1.626817           6
 fordep                                  1.534886           7
 pothar                                  1.476224         775
 fewald                                  1.445819        1557
 rsp                                     1.058057        1557
 rcp                                     0.078558        1557
 strelo                                  0.051499           7
 strehar                                 0.050953           7
 strkin                                  0.045388           7
 potlok_metagga                          0.003612         775
 set_rsgf_all                            0.001520         782
 brgrid                                  0.000790           1
 phaser                                  0.000374         472
 crpa_reader                             0.000289           1
 rotate_active_occupied_orbital          0.000124           7
 set_dd_magatom                          0.000084          14
 vectorpot                               0.000028           1
 shift_bands_between_low_high            0.000019          13
 ---------------------------------------------------------------
 
Profiling took  11.665668  3.753089  0.011169  0.010517 seconds
Profiling took  13.651654 seconds
