 vasp.6.3.2 27Jun22 (build Apr 26 2023 23:54:53) gamma-only                     
  
 executed on           IFC15_impi date 2023.06.12  11:17:44
 running  256 mpi-ranks, with    1 threads/rank
 distrk:  each k-point on  256 cores,    1 groups
 distr:  one band on NCORE=  16 cores,   16 groups


--------------------------------------------------------------------------------------------------------


 INCAR:
   ENCUT = 500.000000
   SIGMA = 0.010000
   EDIFF = 1.00e-05
   ALGO = A
   ISMEAR = 0
   NELM = 200
   NCORE = 16
   LCHARG = .FALSE.
   LWAVE = .FALSE.
   LREAL = Auto
   IBRION = 2
   EDIFFG = -0.05
   GGA = BF
   LUSE_VDW = .TRUE.
   ZAB_VDW = -1.8867
   LBEEFENS = .TRUE.
   DIPOL = 0.5 0.5 0.65
   IDIPOL = 3
   LDIPOL = .TRUE.

 POTCAR:    PAW_PBE Au 04Oct2007                  
 POTCAR:    PAW_PBE O 08Apr2002                   
 POTCAR:    PAW_PBE Sr_sv 07Sep2000               
 POTCAR:    PAW_PBE Ti_sv 26Sep2005               
 -----------------------------------------------------------------------------
|                                                                             |
|               ----> ADVICE to this user running VASP <----                  |
|                                                                             |
|     You have switched on vdW-DFT.                                           |
|     This routine was written and supplied by Jiri Klimes. We recommend      |
|     that you carefully read and cite the following publications:            |
|       J. Klimes, D.R. Bowler, A. Michelides                                 |
|          J. Phys.: Cond Matt. 22 022201 (2010)                              |
|       J. Klimes, D.R. Bowler, A. Michelides                                 |
|          Phys. Rev. B. 83, 195131 (2011)                                    |
|     and references therein.                                                 |
|                                                                             |
 -----------------------------------------------------------------------------

 POTCAR:    PAW_PBE Au 04Oct2007                  
   SHA256 =  d0044ae04e2bdce24051b198fc5c053d722a5bc6fe3c3b100514a13fc5d2db88 Au/POTCAR             
   COPYR  = (c) Copyright 04Oct2007 Georg Kresse                                                    
   COPYR  = This file is part of the software VASP. Any use, copying, and all other rights are regul
   COPYR  = If you do not have a valid VASP license, you may not use, copy or distribute this file. 
   VRHFIN =Au: s1d10                                                                                
   LEXCH  = PE                                                                                      
   EATOM  =   926.0867 eV,   68.0654 Ry                                                             
                                                                                                    
   TITEL  = PAW_PBE Au 04Oct2007                                                                    
   LULTRA =        F    use ultrasoft PP ?                                                          
   IUNSCR =        1    unscreen: 0-lin 1-nonlin 2-no                                               
   RPACOR =    2.330    partial core radius                                                         
   POMASS =  196.966; ZVAL   =   11.000    mass and valenz                                          
   RCORE  =    2.500    outmost cutoff radius                                                       
   RWIGS  =    2.840; RWIGS  =    1.503    wigner-seitz radius (au A)                               
   ENMAX  =  229.943; ENMIN  =  172.457 eV                                                          
   ICORE  =        3    local potential                                                             
   LCOR   =        T    correct aug charges                                                         
   LPAW   =        T    paw PP                                                                      
   EAUG   =  356.670                                                                                
   DEXC   =    0.000                                                                                
   RMAX   =    2.562    core radius for proj-oper                                                   
   RAUG   =    1.300    factor for augmentation sphere                                              
   RDEP   =    2.598    radius for radial grids                                                     
   RDEPT  =    2.193    core radius for aug-charge                                                  
                                                                                                    
   Atomic configuration                                                                             
   16 entries                                                                                       
     n  l   j            E        occ.                                                              
     1  0  0.50    -80748.5001   2.0000                                                             
     2  0  0.50    -14244.7466   2.0000                                                             
     2  1  1.50    -12310.9591   6.0000                                                             
     3  0  0.50     -3362.1768   2.0000                                                             
     3  1  1.50     -2801.5463   6.0000                                                             
     3  2  2.50     -2203.8206  10.0000                                                             
     4  0  0.50      -729.8168   2.0000                                                             
     4  1  1.50      -546.0527   6.0000                                                             
     4  2  2.50      -325.7302  10.0000                                                             
     4  3  3.50       -81.1472  14.0000                                                             
     5  0  0.50      -108.3201   2.0000                                                             
     5  1  1.50       -59.7479   6.0000                                                             
     5  2  2.50        -6.8783  10.0000                                                             
     6  0  0.50        -5.7602   1.0000                                                             
     6  1  1.50        -6.8029   0.0000                                                             
     5  3  2.50        -1.3606   0.0000                                                             
   Description                                                                                      
     l       E           TYP  RCUT    TYP  RCUT                                                     
     2     -6.8782861     23  2.500                                                                 
     2     -8.2388687     23  2.500                                                                 
     0     -5.7601759     23  2.500                                                                 
     0     -0.8493231     23  2.500                                                                 
     1     -2.7211652     23  2.500                                                                 
     1     27.2116520     23  2.500                                                                 
     3     -1.3605826     23  2.500                                                                 
  local pseudopotential read in
  partial core-charges read in
  partial kinetic energy density read in
  atomic valenz-charges read in
  non local Contribution for L=           2  read in
    real space projection operators read in
  non local Contribution for L=           2  read in
    real space projection operators read in
  non local Contribution for L=           0  read in
    real space projection operators read in
  non local Contribution for L=           0  read in
    real space projection operators read in
  non local Contribution for L=           1  read in
    real space projection operators read in
  non local Contribution for L=           1  read in
    real space projection operators read in
    PAW grid and wavefunctions read in
 
   number of l-projection  operators is LMAX  =           6
   number of lm-projection operators is LMMAX =          18
 
 POTCAR:    PAW_PBE O 08Apr2002                   
   SHA256 =  818f92134a0a090dccd8ba1447fa70422a3b330e708bb4f08108d8ae51209ddf O/POTCAR              
   COPYR  = (c) Copyright 08Apr2002 Georg Kresse                                                    
   COPYR  = This file is part of the software VASP. Any use, copying, and all other rights are regul
   COPYR  = If you do not have a valid VASP license, you may not use, copy or distribute this file. 
   VRHFIN =O: s2p4                                                                                  
   LEXCH  = PE                                                                                      
   EATOM  =   432.3788 eV,   31.7789 Ry                                                             
                                                                                                    
   TITEL  = PAW_PBE O 08Apr2002                                                                     
   LULTRA =        F    use ultrasoft PP ?                                                          
   IUNSCR =        1    unscreen: 0-lin 1-nonlin 2-no                                               
   RPACOR =    1.200    partial core radius                                                         
   POMASS =   16.000; ZVAL   =    6.000    mass and valenz                                          
   RCORE  =    1.520    outmost cutoff radius                                                       
   RWIGS  =    1.550; RWIGS  =    0.820    wigner-seitz radius (au A)                               
   ENMAX  =  400.000; ENMIN  =  300.000 eV                                                          
   ICORE  =        2    local potential                                                             
   LCOR   =        T    correct aug charges                                                         
   LPAW   =        T    paw PP                                                                      
   EAUG   =  605.392                                                                                
   DEXC   =    0.000                                                                                
   RMAX   =    1.553    core radius for proj-oper                                                   
   RAUG   =    1.300    factor for augmentation sphere                                              
   RDEP   =    1.550    radius for radial grids                                                     
   RDEPT  =    1.329    core radius for aug-charge                                                  
                                                                                                    
   Atomic configuration                                                                             
    4 entries                                                                                       
     n  l   j            E        occ.                                                              
     1  0  0.50      -514.6923   2.0000                                                             
     2  0  0.50       -23.9615   2.0000                                                             
     2  1  0.50        -9.0305   4.0000                                                             
     3  2  1.50        -9.5241   0.0000                                                             
   Description                                                                                      
     l       E           TYP  RCUT    TYP  RCUT                                                     
     0    -23.9615318     23  1.200                                                                 
     0     -9.5240782     23  1.200                                                                 
     1     -9.0304911     23  1.520                                                                 
     1      8.1634956     23  1.520                                                                 
     2     -9.5240782      7  1.500                                                                 
  local pseudopotential read in
  partial core-charges read in
  partial kinetic energy density read in
  kinetic energy density of atom read in
  atomic valenz-charges read in
  non local Contribution for L=           0  read in
    real space projection operators read in
  non local Contribution for L=           0  read in
    real space projection operators read in
  non local Contribution for L=           1  read in
    real space projection operators read in
  non local Contribution for L=           1  read in
    real space projection operators read in
    PAW grid and wavefunctions read in
 
   number of l-projection  operators is LMAX  =           4
   number of lm-projection operators is LMMAX =           8
 
 POTCAR:    PAW_PBE Sr_sv 07Sep2000               
   SHA256 =  a8389d3481648516ee67182ee030b298d280b37e29cbbf2d8595f040d757c710 Sr_sv/POTCAR          
   COPYR  = (c) Copyright 07Sep2000 Georg Kresse                                                    
   COPYR  = This file is part of the software VASP. Any use, copying, and all other rights are regul
   COPYR  = If you do not have a valid VASP license, you may not use, copy or distribute this file. 
   VRHFIN =Sr: 4s4p5s                                                                               
   LEXCH  = PE                                                                                      
   EATOM  =   843.0319 eV,   61.9611 Ry                                                             
                                                                                                    
   TITEL  = PAW_PBE Sr_sv 07Sep2000                                                                 
   LULTRA =        F    use ultrasoft PP ?                                                          
   IUNSCR =        1    unscreen: 0-lin 1-nonlin 2-no                                               
   RPACOR =    2.200    partial core radius                                                         
   POMASS =   87.620; ZVAL   =   10.000    mass and valenz                                          
   RCORE  =    2.500    outmost cutoff radius                                                       
   RWIGS  =    4.040; RWIGS  =    2.138    wigner-seitz radius (au A)                               
   ENMAX  =  229.353; ENMIN  =  172.014 eV                                                          
   RCLOC  =    2.201    cutoff for local pot                                                        
   LCOR   =        T    correct aug charges                                                         
   LPAW   =        T    paw PP                                                                      
   EAUG   =  366.804                                                                                
   DEXC   =    0.000                                                                                
   RMAX   =    2.547    core radius for proj-oper                                                   
   RAUG   =    1.300    factor for augmentation sphere                                              
   RDEP   =    2.562    radius for radial grids                                                     
   RDEPT  =    2.128    core radius for aug-charge                                                  
                                                                                                    
   Atomic configuration                                                                             
   10 entries                                                                                       
     n  l   j            E        occ.                                                              
     1  0  0.50    -15934.8930   2.0000                                                             
     2  0  0.50     -2157.6250   2.0000                                                             
     2  1  1.50     -1917.0034   6.0000                                                             
     3  0  0.50      -333.7288   2.0000                                                             
     3  1  1.50      -256.0992   6.0000                                                             
     3  2  2.50      -127.9971  10.0000                                                             
     4  0  0.50       -40.8953   2.0000                                                             
     5  0  0.50        -3.5257   1.9990                                                             
     4  1  1.50       -22.8179   6.0000                                                             
     4  2  1.50        -1.2815   0.0010                                                             
   Description                                                                                      
     l       E           TYP  RCUT    TYP  RCUT                                                     
     0    -40.8953213     23  2.480                                                                 
     0     -3.5257161     23  2.480                                                                 
     1    -22.8178632     23  2.500                                                                 
     1    -24.1784458     23  2.500                                                                 
     2     -1.2814598     23  2.500                                                                 
     2      0.2279365     23  2.500                                                                 
  local pseudopotential read in
  partial core-charges read in
  partial kinetic energy density read in
  atomic valenz-charges read in
  non local Contribution for L=           0  read in
    real space projection operators read in
  non local Contribution for L=           0  read in
    real space projection operators read in
  non local Contribution for L=           1  read in
    real space projection operators read in
  non local Contribution for L=           1  read in
    real space projection operators read in
  non local Contribution for L=           2  read in
    real space projection operators read in
  non local Contribution for L=           2  read in
    real space projection operators read in
    PAW grid and wavefunctions read in
 
   number of l-projection  operators is LMAX  =           6
   number of lm-projection operators is LMMAX =          18
 
 POTCAR:    PAW_PBE Ti_sv 26Sep2005               
   SHA256 =  4d747badb5a5ea28d858fbac70885b3f8929d6fd9e5b0dbe1ecb9878dc164da1 Ti_sv/POTCAR          
   COPYR  = (c) Copyright 26Sep2005 Georg Kresse                                                    
   COPYR  = This file is part of the software VASP. Any use, copying, and all other rights are regul
   COPYR  = If you do not have a valid VASP license, you may not use, copy or distribute this file. 
   VRHFIN =Ti: 3p4s3d                                                                               
   LEXCH  = PE                                                                                      
   EATOM  =  1588.0892 eV,  116.7213 Ry                                                             
                                                                                                    
   TITEL  = PAW_PBE Ti_sv 26Sep2005                                                                 
   LULTRA =        F    use ultrasoft PP ?                                                          
   IUNSCR =        1    unscreen: 0-lin 1-nonlin 2-no                                               
   RPACOR =    2.000    partial core radius                                                         
   POMASS =   47.880; ZVAL   =   12.000    mass and valenz                                          
   RCORE  =    2.300    outmost cutoff radius                                                       
   RWIGS  =    2.300; RWIGS  =    1.217    wigner-seitz radius (au A)                               
   ENMAX  =  274.610; ENMIN  =  205.957 eV                                                          
   ICORE  =        3    local potential                                                             
   LCOR   =        T    correct aug charges                                                         
   LPAW   =        T    paw PP                                                                      
   EAUG   =  482.848                                                                                
   RMAX   =    2.348    core radius for proj-oper                                                   
   RAUG   =    1.300    factor for augmentation sphere                                              
   RDEP   =    2.381    radius for radial grids                                                     
   RDEPT  =    1.930    core radius for aug-charge                                                  
                                                                                                    
   Atomic configuration                                                                             
    8 entries                                                                                       
     n  l   j            E        occ.                                                              
     1  0  0.50     -4865.3608   2.0000                                                             
     2  0  0.50      -533.1368   2.0000                                                             
     2  1  1.50      -440.5031   6.0000                                                             
     3  0  0.50       -59.3186   2.0000                                                             
     4  0  0.50        -3.7291   1.0000                                                             
     3  1  1.50       -35.7012   6.0000                                                             
     3  2  2.50        -1.9157   3.0000                                                             
     4  3  2.50        -1.3606   0.0000                                                             
   Description                                                                                      
     l       E           TYP  RCUT    TYP  RCUT                                                     
     0    -59.3185931     23  1.800                                                                 
     0     -3.7290822     23  2.300                                                                 
     1    -35.7012045     23  2.300                                                                 
     1     -1.3605826     23  2.300                                                                 
     2     -1.9156920     23  2.300                                                                 
     2     -0.0236318     23  2.300                                                                 
     3     -1.3605826     23  2.300                                                                 
  local pseudopotential read in
  partial core-charges read in
  partial kinetic energy density read in
  atomic valenz-charges read in
  non local Contribution for L=           0  read in
    real space projection operators read in
  non local Contribution for L=           0  read in
    real space projection operators read in
  non local Contribution for L=           1  read in
    real space projection operators read in
  non local Contribution for L=           1  read in
    real space projection operators read in
  non local Contribution for L=           2  read in
    real space projection operators read in
  non local Contribution for L=           2  read in
    real space projection operators read in
    PAW grid and wavefunctions read in
 
   number of l-projection  operators is LMAX  =           6
   number of lm-projection operators is LMMAX =          18
 
 Optimization of the real space projectors (new method)

 maximal supplied QI-value         = 15.12
 optimisation between [QCUT,QGAM] = [ 11.34, 22.83] = [ 36.00,145.93] Ry 
 Optimized for a Real-space Cutoff    1.39 Angstroem

   l    n(q)    QCUT    max X(q) W(low)/X(q) W(high)/X(q)  e(spline) 
   2      9    11.338    60.898    0.39E-03    0.42E-03    0.21E-06
   2      9    11.338    58.894    0.40E-03    0.42E-03    0.22E-06
   0      9    11.338   109.617    0.13E-03    0.20E-04    0.13E-06
   0      9    11.338    75.026    0.13E-03    0.20E-04    0.13E-06
   1      9    11.338    16.344    0.33E-04    0.24E-03    0.18E-06
   1      9    11.338    10.160    0.26E-04    0.19E-03    0.15E-06
 Optimization of the real space projectors (new method)

 maximal supplied QI-value         = 24.76
 optimisation between [QCUT,QGAM] = [ 11.39, 22.77] = [ 36.31,145.25] Ry 
 Optimized for a Real-space Cutoff    1.00 Angstroem

   l    n(q)    QCUT    max X(q) W(low)/X(q) W(high)/X(q)  e(spline) 
   0      7    11.387    20.381    0.39E-03    0.13E-02    0.15E-06
   0      7    11.387    15.268    0.42E-03    0.14E-02    0.17E-06
   1      6    11.387     5.964    0.41E-03    0.11E-02    0.17E-06
   1      6    11.387     5.382    0.39E-03    0.87E-03    0.15E-06
 Optimization of the real space projectors (new method)

 maximal supplied QI-value         = 15.12
 optimisation between [QCUT,QGAM] = [ 11.34, 22.83] = [ 36.00,145.93] Ry 
 Optimized for a Real-space Cutoff    1.56 Angstroem

   l    n(q)    QCUT    max X(q) W(low)/X(q) W(high)/X(q)  e(spline) 
   0     11    11.338    11.565    0.26E-04    0.80E-05    0.70E-07
   0     11    11.338    10.214    0.41E-04    0.15E-04    0.15E-06
   1     10    11.338   189.983    0.18E-03    0.52E-04    0.42E-06
   1     10    11.338   193.105    0.19E-03    0.52E-04    0.42E-06
   2     10    11.338   115.941    0.22E-03    0.42E-03    0.43E-06
   2     10    11.338    76.444    0.21E-03    0.41E-03    0.42E-06
 Optimization of the real space projectors (new method)

 maximal supplied QI-value         = 16.25
 optimisation between [QCUT,QGAM] = [ 11.38, 22.75] = [ 36.24,144.96] Ry 
 Optimized for a Real-space Cutoff    1.27 Angstroem

   l    n(q)    QCUT    max X(q) W(low)/X(q) W(high)/X(q)  e(spline) 
   0      9    11.376    12.277    0.53E-04    0.25E-04    0.25E-07
   0      9    11.376    11.419    0.89E-04    0.67E-05    0.35E-07
   1      8    11.376     4.010    0.13E-03    0.11E-03    0.29E-07
   1      8    11.376     6.182    0.94E-04    0.19E-03    0.11E-06
   2      8    11.376    47.177    0.13E-03    0.88E-03    0.24E-06
   2      8    11.376    42.437    0.13E-03    0.86E-03    0.23E-06
 -----------------------------------------------------------------------------
|                                                                             |
|               ----> ADVICE to this user running VASP <----                  |
|                                                                             |
|     You enforced a specific xc type in the INCAR file but a different       |
|     type was found in the POTCAR file.                                      |
|     I HOPE YOU KNOW WHAT YOU ARE DOING!                                     |
|                                                                             |
 -----------------------------------------------------------------------------

  PAW_PBE Au 04Oct2007                  :
 energy of atom  1       EATOM= -926.0867
 kinetic energy error for atom=    0.0042 (will be added to EATOM!!)
  PAW_PBE O 08Apr2002                   :
 energy of atom  2       EATOM= -432.3788
 kinetic energy error for atom=    0.0224 (will be added to EATOM!!)
  PAW_PBE Sr_sv 07Sep2000               :
 energy of atom  3       EATOM= -843.0319
 kinetic energy error for atom=    0.0012 (will be added to EATOM!!)
  PAW_PBE Ti_sv 26Sep2005               :
 energy of atom  4       EATOM=-1588.0892
 kinetic energy error for atom=    0.0046 (will be added to EATOM!!)
 
 
 POSCAR: Au  O Sr Ti
  positions in cartesian coordinates
  No initial velocities read in
 exchange correlation table for  LEXCH =       17
   RHO(1)=    0.500       N(1)  =     2000
   RHO(2)=  100.500       N(2)  =     4000
 


--------------------------------------------------------------------------------------------------------


 ion  position               nearest neighbor table
   1  0.719  0.525  0.754-  16 2.72  15 2.72  14 2.78   2 2.82  44 2.83  29 2.97  46 3.07
   2  0.626  0.566  0.704-  84 2.08  15 2.81   1 2.82  46 2.86  48 2.87  12 2.92  16 2.93  36 3.09
                            11 3.30   5 3.53 141 3.71
   3  0.719  0.259  0.692- 104 2.07  73 2.08  32 2.65  43 2.78  27 2.84 161 3.05 131 4.02 132 4.04

   4  0.288  0.745  0.699- 119 2.05  86 2.06   9 2.77  23 2.80  50 3.09  42 3.50  45 3.50 129 4.27
                           133 4.30
   5  0.515  0.604  0.777-  26 2.69  48 2.74  13 2.84  12 2.90  47 2.91  39 2.94  16 3.00   6 3.12
                            49 3.41  31 3.45   2 3.53
   6  0.577  0.726  0.792-  36 2.74  18 2.74  17 2.77  47 2.81  13 2.99   5 3.12  48 3.13  16 3.50

   7  0.550  0.384  0.830-  10 2.76  33 2.80  29 2.86  20 2.86  31 2.97  34 2.98  12 3.04  41 3.41

   8  0.243  0.467  0.709- 118 2.10  19 2.68  24 2.80  45 2.83  40 2.94  35 3.06 139 4.16
   9  0.282  0.660  0.767-  45 2.70  50 2.75   4 2.77  30 2.77  24 2.80
  10  0.602  0.289  0.788-   7 2.76  41 2.79  32 2.79  27 2.79  43 2.80  25 3.13  34 3.27
  11  0.515  0.483  0.678-  89 2.11  67 2.16  26 2.70  12 2.78  49 2.90  34 2.90 149 3.13   2 3.30
                            46 3.33 136 3.54  37 3.58 146 4.06
  12  0.563  0.486  0.763-  11 2.78  34 2.80  49 2.84  29 2.86  31 2.89   5 2.90   2 2.92  46 2.99
                            16 3.01   7 3.04
  13  0.464  0.695  0.830-  50 2.81   5 2.84  30 2.85  47 2.87  39 2.89  18 2.92   6 2.99
  14  0.764  0.430  0.706-  74 2.01  44 2.72   1 2.78  46 2.79  43 2.88 124 3.72 131 4.21
  15  0.734  0.616  0.694- 102 2.10  70 2.11  36 2.68   1 2.72   2 2.81  28 3.24 141 3.42 126 3.74

  16  0.637  0.583  0.800-   1 2.72  36 2.78  47 2.78  31 2.82   2 2.93   5 3.00  12 3.01  29 3.22
                             6 3.50
  17  0.594  0.785  0.712-  77 2.08   6 2.77  28 2.79  48 2.94  18 2.97  36 3.13 140 4.17 145 4.31

  18  0.483  0.780  0.758-   6 2.74  42 2.82  23 2.85  50 2.86  13 2.92  17 2.97  48 3.45
  19  0.350  0.502  0.697- 101 2.10   8 2.68  49 2.89  24 2.90  37 2.91  40 2.99  45 3.00  26 3.04
                           129 4.10 130 4.28
  20  0.431  0.372  0.816-  33 2.78  21 2.80   7 2.86  49 2.92  41 2.94  40 2.98  38 3.03  34 3.17

  21  0.373  0.299  0.756-  37 2.77  35 2.78  20 2.80  40 2.82  22 2.85  41 2.85
  22  0.441  0.229  0.697- 111 2.01  99 2.14  41 2.74  25 2.79  21 2.85  37 3.59 137 3.89 128 4.35

  23  0.387  0.814  0.706- 100 2.08  42 2.76  50 2.78   4 2.80  18 2.85 133 3.64 145 4.19
  24  0.290  0.536  0.778-   8 2.80   9 2.80  38 2.81  40 2.87  45 2.89  19 2.90  30 2.90
  25  0.555  0.207  0.712- 120 2.13  22 2.79  41 2.84  27 2.86  32 2.87  10 3.13 137 3.92
  26  0.455  0.580  0.703- 101 2.12   5 2.69  11 2.70  42 2.73  49 2.85  48 2.89  19 3.04 146 3.62

  27  0.613  0.318  0.698-  83 2.04  43 2.78  10 2.79  46 2.83   3 2.84  34 2.86  25 2.86  32 3.43
                           131 3.60 136 4.23
  28  0.705  0.758  0.688- 103 2.05  70 2.05  36 2.64  17 2.79 160 3.14  15 3.24 140 3.80 141 4.18

  29  0.657  0.441  0.812-  44 2.85  12 2.86   7 2.86  31 2.87  43 2.90   1 2.97  16 3.22  46 3.45

  30  0.369  0.618  0.820-   9 2.77  39 2.78  38 2.84  13 2.85  24 2.90  50 2.92
  31  0.571  0.510  0.857-  33 2.77  16 2.82  29 2.87  12 2.89  39 2.91  47 2.92   7 2.97   5 3.45

  32  0.664  0.194  0.752-   3 2.65  10 2.79  25 2.87  27 3.43  43 3.49
  33  0.473  0.451  0.879-  31 2.77  20 2.78  39 2.78   7 2.80  38 2.82
  34  0.516  0.377  0.734-  12 2.80  41 2.81  49 2.86  27 2.86  11 2.90   7 2.98  37 3.09  20 3.17
                            10 3.27  46 3.58 136 4.19
  35  0.284  0.337  0.703-  87 2.06  21 2.78  40 2.83  37 2.91   8 3.06 130 3.54 139 4.10
  36  0.670  0.681  0.749-  28 2.64  15 2.68   6 2.74  16 2.78   2 3.09  17 3.13  48 3.23
  37  0.398  0.383  0.691- 112 2.03  99 2.14  21 2.77  35 2.91  19 2.91  40 2.99  49 3.04  34 3.09
                           130 3.40  11 3.58  22 3.59 136 3.79
  38  0.376  0.492  0.834-  24 2.81  33 2.82  30 2.84  49 2.84  40 2.85  39 2.90  20 3.03
  39  0.464  0.574  0.863-  33 2.78  30 2.78  47 2.85  13 2.89  38 2.90  31 2.91   5 2.94
  40  0.327  0.414  0.770-  21 2.82  35 2.83  38 2.85  24 2.87   8 2.94  20 2.98  19 2.99  37 2.99
                            49 3.09
  41  0.487  0.268  0.775-  22 2.74  10 2.79  34 2.81  25 2.84  21 2.85  20 2.94   7 3.41
  42  0.430  0.699  0.699-  76 2.03  26 2.73  23 2.76  18 2.82  50 2.84  48 2.91   4 3.50 146 3.97
                           129 4.18
  43  0.700  0.346  0.757-  27 2.78   3 2.78  10 2.80  44 2.81  14 2.88  29 2.90  46 3.02  32 3.49

  44  0.774  0.428  0.796-  14 2.72  43 2.81   1 2.83  29 2.85
  45  0.255  0.592  0.695-  85 2.04 119 2.10   9 2.70   8 2.83  24 2.89  19 3.00   4 3.50 129 3.61
                           134 3.70
  46  0.647  0.440  0.698-  89 2.19  14 2.79  27 2.83   2 2.86  12 2.99  43 3.02   1 3.07  11 3.33
                            29 3.45 131 3.49  34 3.58
  47  0.566  0.641  0.861-  16 2.78   6 2.81  39 2.85  13 2.87   5 2.91  31 2.92
  48  0.548  0.664  0.702-  90 2.11   5 2.74   2 2.87  26 2.89  42 2.91  17 2.94   6 3.13  36 3.23
                            18 3.45 146 3.51 141 4.37
  49  0.443  0.475  0.756-  38 2.84  12 2.84  26 2.85  34 2.86  19 2.89  11 2.90  20 2.92  37 3.04
                            40 3.09   5 3.41
  50  0.373  0.735  0.777-   9 2.75  23 2.78  13 2.81  42 2.84  18 2.86  30 2.92   4 3.09
  51  1.000  0.498  0.594- 170 1.94 164 1.95 142 2.88 143 3.20
  52  0.999  0.754  0.592- 165 1.94 167 1.95 127 2.84 143 3.37
  53  0.335  0.254  0.593- 157 1.90 155 2.06 130 2.68 128 3.06
  54  0.334  1.000  0.592- 156 2.00 154 2.04 133 2.72 128 2.75
  55  1.000  0.998  0.593- 147 2.00 166 2.00 127 2.89 123 2.89
  56  0.001  0.250  0.592- 169 1.95 163 1.99 142 2.94 123 2.95
  57  0.334  0.497  0.591- 168 1.85 150 2.17 130 2.75 129 2.83
  58  0.335  0.739  0.592- 158 1.93 151 2.05 129 2.59 133 3.13
  59  0.663  0.247  0.591- 152 1.88 161 2.15 131 2.79 132 2.81
  60  0.666  0.000  0.592- 153 2.01 162 2.02 140 2.70 132 2.83
  61  0.666  0.742  0.590- 148 1.96 160 2.05 141 2.58 140 3.14
  62  0.667  0.493  0.591- 149 1.81 159 2.13 131 2.71 141 2.98
  63  0.167  0.998  0.592- 154 1.97 166 2.02 138 2.91 135 2.93
  64  0.169  0.249  0.593- 155 1.94 163 2.03 139 2.77 138 2.95
  65  0.171  0.750  0.595- 151 1.87 165 2.16 134 2.76 135 2.83
  66  0.165  0.504  0.588- 150 1.83 164 2.05 134 2.80 139 3.00
  67  0.498  0.504  0.609- 168 2.11  11 2.16 149 2.24 146 2.74 136 3.00
  68  0.499  0.253  0.590- 157 1.99 152 2.05 136 2.64 137 2.96
  69  0.500  1.000  0.591- 156 2.00 153 2.00 137 2.76 145 2.81
  70  0.753  0.693  0.658-  28 2.05  15 2.11 160 2.40 126 3.03 141 3.19
  71  0.749  0.937  0.640- 162 1.80 125 2.49 140 2.53
  72  0.253  0.186  0.641- 155 1.74 128 2.52 138 2.55
  73  0.746  0.194  0.647- 161 1.99   3 2.08 132 2.67 144 2.72
  74  0.756  0.436  0.639- 159 1.97  14 2.01 124 2.60 131 2.81
  75  0.417  0.935  0.640- 156 1.79 145 2.52 133 2.57
  76  0.422  0.676  0.634- 158 2.03  42 2.03 146 2.55 129 2.63
  77  0.590  0.811  0.646- 148 1.94  17 2.08 140 2.64 145 2.80
  78  0.916  0.062  0.641- 147 1.80 144 2.49 123 2.50
  79  0.914  0.561  0.643- 170 1.80 143 2.45 126 2.55
  80  0.915  0.312  0.639- 169 1.80 142 2.50 124 2.53
  81  0.914  0.812  0.642- 167 1.79 125 2.50 127 2.51
  82  0.582  0.066  0.640- 153 1.79 132 2.51 137 2.52
  83  0.583  0.319  0.634- 152 1.96  27 2.04 136 2.54 131 2.67
  84  0.593  0.564  0.640- 149 1.98   2 2.08 141 2.63 146 2.85
  85  0.248  0.574  0.629- 150 1.99  45 2.04 129 2.54 134 2.56
  86  0.261  0.798  0.647- 151 1.96   4 2.06 133 2.84 135 2.91
  87  0.250  0.316  0.641- 155 1.94  35 2.06 139 2.59 130 2.65
  88  0.251  0.059  0.642- 154 1.79 128 2.49 138 2.50
  89  0.582  0.438  0.646- 149 2.11  11 2.11  46 2.19 136 2.86 131 3.00
  90  0.580  0.685  0.638- 148 1.87  48 2.11 146 2.61 141 2.76
  91  0.917  0.187  0.641- 169 1.79 144 2.49 123 2.52
  92  0.582  0.936  0.639- 153 1.80 145 2.50 140 2.51
  93  0.830  0.750  0.593- 160 1.86 167 2.10 126 2.79 125 2.89
  94  0.832  0.248  0.591- 161 1.84 169 2.12 124 2.81 144 2.87
  95  0.833  0.504  0.590- 159 1.83 170 2.07 126 2.77 124 2.96
  96  0.832  0.002  0.592- 162 1.99 147 2.02 144 2.86 125 2.93
  97  0.501  0.756  0.593- 148 1.99 158 2.01 145 2.73 146 2.94
  98  0.418  0.065  0.640- 156 1.80 128 2.51 137 2.54
  99  0.427  0.305  0.655-  37 2.14  22 2.14 157 2.32 136 2.94 130 3.39
 100  0.412  0.812  0.640- 158 1.95  23 2.08 133 2.60 145 2.69
 101  0.400  0.551  0.652-  19 2.10  26 2.12 168 2.16 129 2.80 146 3.44
 102  0.752  0.571  0.634- 159 1.92  15 2.10 126 2.61 141 2.67
 103  0.741  0.810  0.640- 160 1.98  28 2.05 140 2.59 125 2.68
 104  0.747  0.313  0.640- 161 2.00   3 2.07 131 2.62 124 2.74
 105  0.748  0.067  0.639- 162 1.79 132 2.47 144 2.48
 106  0.084  0.312  0.640- 163 1.80 142 2.49 139 2.51
 107  0.086  0.562  0.642- 164 1.80 143 2.46 134 2.55
 108  0.083  0.060  0.641- 166 1.80 123 2.50 138 2.50
 109  0.087  0.437  0.640- 164 1.79 139 2.51 142 2.53
 110  0.084  0.186  0.641- 163 1.79 123 2.50 138 2.50
 111  0.419  0.188  0.640- 157 2.00  22 2.01 137 2.64 128 2.68
 112  0.415  0.419  0.630-  37 2.03 168 2.07 136 2.54 130 2.59
 113  0.084  0.935  0.641- 166 1.80 135 2.48 127 2.49
 114  0.082  0.687  0.640- 165 1.80 143 2.44 134 2.51
 115  0.913  0.436  0.640- 170 1.80 124 2.52 142 2.54
 116  0.917  0.687  0.640- 167 1.80 143 2.45 126 2.51
 117  0.914  0.937  0.641- 147 1.80 125 2.47 127 2.50
 118  0.241  0.442  0.642- 150 1.90   8 2.10 139 2.62 130 2.92
 119  0.249  0.677  0.665-   4 2.05  45 2.10 134 3.06 129 3.16
 120  0.579  0.190  0.644- 152 1.90  25 2.13 137 2.66 132 2.71
 121  0.252  0.930  0.637- 154 1.81 135 2.46 133 2.49
 122  0.084  0.812  0.642- 165 1.79 135 2.47 127 2.53
 123  0.001  0.123  0.619- 108 2.50 110 2.50  78 2.50  91 2.52  55 2.89  56 2.95 147 3.43 169 3.43
                           166 3.43 163 3.45 138 3.95 144 3.95
 124  0.837  0.373  0.604- 115 2.52  80 2.53  74 2.60 104 2.74  94 2.81  95 2.96 169 3.40 161 3.42
                           170 3.44 159 3.48  14 3.72 142 3.90 131 3.94
 125  0.832  0.875  0.618- 117 2.47  71 2.49  81 2.50 103 2.68  93 2.89  96 2.93 160 3.44 147 3.45
                           162 3.46 167 3.47 127 3.95 140 3.96
 126  0.841  0.626  0.603- 116 2.51  79 2.55 102 2.61  95 2.77  93 2.79  70 3.03 167 3.33 170 3.36
                           159 3.42 160 3.54  15 3.74 143 3.98 141 4.14
 127  0.999  0.875  0.622- 113 2.49 117 2.50  81 2.51 122 2.53  52 2.84  55 2.89 167 3.40 165 3.42
                           166 3.44 147 3.45 125 3.95 135 3.96
 128  0.331  0.120  0.613-  88 2.49  98 2.51  72 2.52 111 2.68  54 2.75  53 3.06 154 3.36 156 3.36
                           155 3.43 157 3.55 138 3.89 137 4.00  22 4.35
 129  0.335  0.624  0.595-  85 2.54  58 2.59  76 2.63 101 2.80  57 2.83 119 3.16 168 3.36 158 3.41
                           151 3.51 150 3.55  45 3.61 146 4.01  19 4.10 134 4.18  42 4.18   4 4.27
 130  0.326  0.374  0.593- 112 2.59  87 2.65  53 2.68  57 2.75 118 2.92  99 3.39  37 3.40 155 3.40
                           150 3.42 168 3.42 157 3.50  35 3.54 139 3.87 136 4.16  19 4.28
 131  0.671  0.372  0.594- 104 2.62  83 2.67  62 2.71  59 2.79  74 2.81  89 3.00 161 3.39 149 3.44
                           152 3.46  46 3.49 159 3.55  27 3.60 124 3.94 136 4.01   3 4.02  14 4.21
 132  0.665  0.124  0.612- 105 2.47  82 2.51  73 2.67 120 2.71  59 2.81  60 2.83 152 3.37 153 3.39
                           162 3.40 161 3.50 137 3.91 144 3.99   3 4.04
 133  0.335  0.879  0.603- 121 2.49  75 2.57 100 2.60  54 2.72  86 2.84  58 3.13 154 3.33 156 3.34
                           158 3.48 151 3.48  23 3.64 145 3.93 135 4.02   4 4.30
 134  0.158  0.627  0.602- 114 2.51 107 2.55  85 2.56  65 2.76  66 2.80 119 3.06 165 3.32 164 3.37
                           150 3.50 151 3.54  45 3.70 143 3.99 129 4.18
 135  0.166  0.872  0.620- 121 2.46 122 2.47 113 2.48  65 2.83  86 2.91  63 2.93 151 3.42 165 3.43
                           154 3.45 166 3.46 127 3.96 133 4.02
 136  0.502  0.371  0.595-  83 2.54 112 2.54  68 2.64  89 2.86  99 2.94  67 3.00 152 3.39 157 3.43
                           168 3.53  11 3.54 149 3.58  37 3.79 131 4.01 130 4.16  34 4.19  27 4.23
 137  0.500  0.122  0.606-  82 2.52  98 2.54 111 2.64 120 2.66  69 2.76  68 2.96 153 3.33 156 3.36
                           152 3.44 157 3.50  22 3.89 132 3.91  25 3.92 128 4.00
 138  0.168  0.123  0.621- 108 2.50  88 2.50 110 2.50  72 2.55  63 2.91  64 2.95 155 3.41 154 3.44
                           166 3.46 163 3.47 128 3.89 123 3.95
 139  0.164  0.372  0.608- 106 2.51 109 2.51  87 2.59 118 2.62  64 2.77  66 3.00 163 3.34 150 3.41
                           155 3.47 164 3.48 130 3.87 142 3.89  35 4.10   8 4.16
 140  0.665  0.881  0.607-  92 2.51  71 2.53 103 2.59  77 2.64  60 2.70  61 3.14 153 3.32 162 3.36
                           148 3.49 160 3.56  28 3.80 145 3.90 125 3.96  17 4.17
 141  0.666  0.627  0.594-  61 2.58  84 2.63 102 2.67  90 2.76  62 2.98  70 3.19 149 3.33 148 3.38
                            15 3.42 160 3.46 159 3.50   2 3.71 146 3.84 126 4.14  28 4.18  48 4.37
 142  0.000  0.375  0.623- 106 2.49  80 2.50 109 2.53 115 2.54  51 2.88  56 2.94 164 3.44 170 3.44
                           169 3.45 163 3.50 139 3.89 124 3.90
 143  1.000  0.623  0.647- 114 2.44 116 2.45  79 2.45 107 2.46  51 3.20  52 3.37 170 3.58 164 3.58
                           165 3.68 167 3.70 126 3.98 134 3.99
 144  0.834  0.125  0.619- 105 2.48  78 2.49  91 2.49  73 2.72  96 2.86  94 2.87 161 3.42 162 3.42
                           147 3.44 169 3.47 123 3.95 132 3.99
 145  0.500  0.877  0.610-  92 2.50  75 2.52 100 2.69  97 2.73  77 2.80  69 2.81 156 3.39 153 3.39
                           148 3.47 158 3.49 140 3.90 133 3.93  23 4.19  17 4.31
 146  0.504  0.625  0.594-  76 2.55  90 2.61  67 2.74  84 2.85  97 2.94 148 3.39 101 3.44 149 3.45
                           158 3.48  48 3.51 168 3.59  26 3.62 141 3.84  42 3.97 129 4.01  11 4.06
 147  0.916  1.000  0.604-  78 1.80 117 1.80  55 2.00  96 2.02 123 3.43 144 3.44 125 3.45 127 3.45

 148  0.584  0.750  0.599-  90 1.87  77 1.94  61 1.96  97 1.99 141 3.38 146 3.39 145 3.47 140 3.49

 149  0.591  0.501  0.594-  62 1.81  84 1.98  89 2.11  67 2.24  11 3.13 141 3.33 131 3.44 146 3.45
                           136 3.58
 150  0.242  0.498  0.594-  66 1.83 118 1.90  85 1.99  57 2.17 139 3.41 130 3.42 134 3.50 129 3.55

 151  0.249  0.752  0.592-  65 1.87  86 1.96  58 2.05 135 3.42 133 3.48 129 3.51 134 3.54
 152  0.584  0.247  0.597-  59 1.88 120 1.90  83 1.96  68 2.05 132 3.37 136 3.39 137 3.44 131 3.46

 153  0.583  0.001  0.604-  82 1.79  92 1.80  69 2.00  60 2.01 140 3.32 137 3.33 132 3.39 145 3.39

 154  0.249  0.997  0.604-  88 1.79 121 1.81  63 1.97  54 2.04 133 3.33 128 3.36 138 3.44 135 3.45

 155  0.249  0.246  0.604-  72 1.74  87 1.94  64 1.94  53 2.06 130 3.40 138 3.41 128 3.43 139 3.47

 156  0.417  0.000  0.605-  75 1.79  98 1.80  69 2.00  54 2.00 133 3.34 137 3.36 128 3.36 145 3.39

 157  0.415  0.249  0.591-  53 1.90  68 1.99 111 2.00  99 2.32 136 3.43 130 3.50 137 3.50 128 3.55

 158  0.416  0.750  0.595-  58 1.93 100 1.95  97 2.01  76 2.03 129 3.41 133 3.48 146 3.48 145 3.49

 159  0.756  0.503  0.596-  95 1.83 102 1.92  74 1.97  62 2.13 126 3.42 124 3.48 141 3.50 131 3.55

 160  0.752  0.753  0.591-  93 1.86 103 1.98  61 2.05  70 2.40  28 3.14 125 3.44 141 3.46 126 3.54
                           140 3.56
 161  0.754  0.248  0.594-  94 1.84  73 1.99 104 2.00  59 2.15   3 3.05 131 3.39 144 3.42 124 3.42
                           132 3.50
 162  0.750  0.002  0.604- 105 1.79  71 1.80  96 1.99  60 2.02 140 3.36 132 3.40 144 3.42 125 3.46

 163  0.084  0.248  0.604- 110 1.79 106 1.80  56 1.99  64 2.03 139 3.34 123 3.45 138 3.47 142 3.50

 164  0.081  0.500  0.604- 109 1.79 107 1.80  51 1.95  66 2.05 134 3.37 142 3.44 139 3.48 143 3.58

 165  0.080  0.751  0.603- 122 1.79 114 1.80  52 1.94  65 2.16 134 3.32 127 3.42 135 3.43 143 3.68

 166  0.083  0.998  0.603- 113 1.80 108 1.80  55 2.00  63 2.02 123 3.43 127 3.44 138 3.46 135 3.46

 167  0.918  0.751  0.603-  81 1.79 116 1.80  52 1.95  93 2.10 126 3.33 127 3.40 125 3.47 143 3.70

 168  0.412  0.497  0.593-  57 1.85 112 2.07  67 2.11 101 2.16 129 3.36 130 3.42 136 3.53 146 3.59

 169  0.920  0.248  0.603-  91 1.79  80 1.80  56 1.95  94 2.12 124 3.40 123 3.43 142 3.45 144 3.47

 170  0.919  0.500  0.604-  79 1.80 115 1.80  51 1.94  95 2.07 126 3.36 124 3.44 142 3.44 143 3.58

 
  LATTYP: Found a simple orthorhombic cell.
 ALAT       =    22.3170261383
 B/A-ratio  =     1.0606601451
 C/A-ratio  =     1.3442651281
  
  Lattice vectors:
  
 A1 = (   0.0000000000, -22.3170261383,   0.0000000000)
 A2 = (  23.6707801819,   0.0000000000,   0.0000000000)
 A3 = (   0.0000000000,   0.0000000000,  30.0000000000)


Analysis of symmetry for initial positions (statically):
=====================================================================
 Subroutine PRICEL returns:
 Original cell was already a primitive cell.
 

 Routine SETGRP: Setting up the symmetry group for a 
 simple orthorhombic supercell.


 Subroutine GETGRP returns: Found  1 space group operations
 (whereof  1 operations were pure point group operations)
 out of a pool of  8 trial point group operations.


The static configuration has the point symmetry C_1 .


Analysis of symmetry for dynamics (positions and initial velocities):
=====================================================================
 Subroutine PRICEL returns:
 Original cell was already a primitive cell.
 

 Routine SETGRP: Setting up the symmetry group for a 
 simple orthorhombic supercell.


 Subroutine GETGRP returns: Found  1 space group operations
 (whereof  1 operations were pure point group operations)
 out of a pool of  8 trial point group operations.


The dynamic configuration has the point symmetry C_1 .


 Subroutine INISYM returns: Found  1 space group operations
 (whereof  1 operations are pure point group operations),
 and found     1 'primitive' translations


----------------------------------------------------------------------------------------

                                     Primitive cell                                     

  volume of cell :   15847.8426

  direct lattice vectors                    reciprocal lattice vectors
    23.670780182  0.000000000  0.000000000     0.042246178  0.000000000  0.000000000
     0.000000000 22.317026138  0.000000000     0.000000000  0.044808838  0.000000000
     0.000000000  0.000000000 30.000000000     0.000000000  0.000000000  0.033333333

  length of vectors
    23.670780182 22.317026138 30.000000000     0.042246178  0.044808838  0.033333333

  position of ions in fractional coordinates (direct lattice)
     0.719253475  0.525236637  0.753941774
     0.625827144  0.565545226  0.703849848
     0.718807853  0.258937146  0.691686284
     0.288148673  0.744884717  0.699349916
     0.515171626  0.604085797  0.777072105
     0.577026382  0.725863433  0.792246697
     0.550448649  0.384397210  0.829657442
     0.242962027  0.467025634  0.709115121
     0.282052783  0.660053184  0.766591354
     0.602376545  0.288638565  0.788074166
     0.514946045  0.482825221  0.678062414
     0.562574648  0.485662296  0.762789638
     0.463763002  0.694939634  0.829747959
     0.764482350  0.430178185  0.705540060
     0.733866333  0.615626395  0.694074236
     0.636679702  0.582948482  0.800194448
     0.594463917  0.785343807  0.712441133
     0.483028279  0.780089694  0.757547223
     0.350069378  0.502244259  0.697314209
     0.431321653  0.371901406  0.815831396
     0.372945329  0.298685079  0.755876318
     0.440670861  0.228527631  0.697089755
     0.386806760  0.813696100  0.706054072
     0.290138806  0.535734245  0.777828070
     0.555088365  0.207106504  0.711746263
     0.455107320  0.579993382  0.703175607
     0.613114508  0.318117977  0.697935723
     0.705238177  0.757616304  0.688462975
     0.656531804  0.441243356  0.812488181
     0.368668975  0.617666418  0.820152971
     0.571407305  0.510182676  0.857063352
     0.664413945  0.193900975  0.752093288
     0.472663317  0.451053487  0.879480420
     0.516143149  0.377015849  0.734226787
     0.283956936  0.337212708  0.702690643
     0.669569196  0.680896255  0.749086464
     0.398102481  0.382580970  0.690605697
     0.376291412  0.492146090  0.833619004
     0.464105765  0.573544086  0.863330669
     0.327008970  0.413661719  0.769633468
     0.487407736  0.268072090  0.775245273
     0.429609464  0.699097738  0.698797145
     0.699949141  0.345523596  0.756821867
     0.774477053  0.428089434  0.796006787
     0.255419105  0.591858221  0.695374764
     0.647431651  0.439515557  0.697578353
     0.566342968  0.640606502  0.860870992
     0.547887291  0.663963589  0.701658653
     0.443140989  0.474682631  0.756168818
     0.372695363  0.735424928  0.777476249
     0.999649999  0.498071944  0.594344158
     0.999259280  0.754250708  0.591982424
     0.334676821  0.254133851  0.592636322
     0.334019423  0.999852275  0.592013774
     0.999650169  0.998076271  0.592813637
     0.001114005  0.249858127  0.591928188
     0.333698297  0.496928179  0.590973282
     0.335279194  0.739360931  0.591672979
     0.663489999  0.247112626  0.590788441
     0.665832712  0.000447364  0.591876480
     0.665887199  0.742115977  0.589986735
     0.667150100  0.493075007  0.590996547
     0.167406608  0.998308080  0.592255873
     0.168550223  0.249161953  0.593051518
     0.170647444  0.749879912  0.594996697
     0.165442044  0.503608461  0.588201499
     0.498413028  0.503924368  0.608936079
     0.498557518  0.252871419  0.590329796
     0.499648877  0.999956083  0.591001873
     0.753431490  0.693451304  0.657511403
     0.748621225  0.936707905  0.639812308
     0.253385032  0.186464005  0.641146230
     0.745702553  0.194190359  0.646733993
     0.755896463  0.436047184  0.639070258
     0.417294827  0.935051330  0.639752567
     0.421882596  0.675750369  0.633626546
     0.589949660  0.810563404  0.645634236
     0.916209436  0.062318211  0.641349419
     0.913790862  0.561476650  0.642616498
     0.915374071  0.311997580  0.639483898
     0.914251695  0.812470044  0.641900267
     0.582180846  0.065515239  0.639843687
     0.583130230  0.319283419  0.634288174
     0.592767221  0.564212187  0.639730606
     0.247857483  0.573930904  0.629111858
     0.261070318  0.798098108  0.647363383
     0.249644093  0.316424165  0.641433053
     0.250822345  0.059448968  0.641996254
     0.581982738  0.438098750  0.645813249
     0.580268855  0.684884482  0.638156586
     0.917168016  0.186547521  0.640581738
     0.582013915  0.935504073  0.639257034
     0.830356788  0.750339031  0.593403444
     0.831735580  0.247840948  0.591483610
     0.833313484  0.503755072  0.589513632
     0.832205048  0.002007072  0.592214310
     0.500872411  0.756362861  0.592746070
     0.417747508  0.065285691  0.639886195
     0.426528135  0.304960690  0.655204004
     0.411874109  0.812439307  0.639759513
     0.399741487  0.551240419  0.652056910
     0.752095168  0.571088890  0.634284705
     0.740949027  0.809981933  0.640071170
     0.746751615  0.312640711  0.640076021
     0.747663361  0.066935203  0.639075343
     0.084056367  0.311891810  0.640404863
     0.086088495  0.561716891  0.642479604
     0.083491299  0.060423186  0.641451070
     0.087097330  0.436545858  0.639670732
     0.083651479  0.185637298  0.640970635
     0.418511538  0.187902930  0.639861078
     0.415187521  0.418904567  0.629960077
     0.084391599  0.935168903  0.640892689
     0.082464553  0.687299407  0.639943699
     0.912515226  0.436120081  0.639713160
     0.916697695  0.687379323  0.639900010
     0.913890686  0.936600058  0.640847578
     0.241033184  0.442207872  0.641620022
     0.248698894  0.676718789  0.665446173
     0.578666818  0.190323362  0.644224186
     0.252036198  0.930032540  0.637350368
     0.083800304  0.811518588  0.642089049
     0.000659965  0.122813413  0.618897638
     0.837069663  0.372585880  0.604301066
     0.831986819  0.875302811  0.618424476
     0.840952337  0.626471946  0.602970423
     0.998954634  0.874802170  0.622339578
     0.331479348  0.119852865  0.613270449
     0.334698621  0.623585025  0.595387947
     0.326023169  0.373787443  0.592904013
     0.671079280  0.371866850  0.594338458
     0.665439210  0.124437286  0.611738619
     0.334601484  0.878855809  0.602860817
     0.158350358  0.627158366  0.602409549
     0.166403206  0.872103427  0.619576701
     0.501834432  0.371088759  0.594963041
     0.500300736  0.121892185  0.605990062
     0.167515606  0.122546667  0.621304592
     0.163560904  0.371714123  0.607776852
     0.665220578  0.880955415  0.606907886
     0.666345380  0.626686591  0.593524318
     0.000213761  0.374938401  0.622530678
     0.999602536  0.622628056  0.646973943
     0.833733663  0.124708214  0.619266991
     0.500361077  0.876665936  0.609875348
     0.504039172  0.624757892  0.593933992
     0.916221225  0.999761439  0.603682415
     0.584467289  0.750261390  0.599340873
     0.590895237  0.500665825  0.593768312
     0.242228146  0.498442669  0.593976129
     0.249448434  0.752448505  0.592177425
     0.584349881  0.247170833  0.597220370
     0.582542988  0.000938008  0.604275248
     0.249435841  0.997434300  0.604128512
     0.249256728  0.245946964  0.603716087
     0.417067765  0.000092560  0.604622414
     0.414788224  0.248517185  0.591017538
     0.416166144  0.749851368  0.594682406
     0.756496717  0.502646397  0.595733297
     0.751765598  0.752558480  0.590594574
     0.754084818  0.247950571  0.594388160
     0.749636399  0.001692701  0.604140117
     0.083843348  0.248095983  0.603680706
     0.081073511  0.500448162  0.603695720
     0.079968523  0.750763253  0.603071241
     0.083247576  0.998031013  0.603481060
     0.918080967  0.751243570  0.603325395
     0.411763780  0.497185156  0.593169662
     0.920000323  0.248479376  0.602728322
     0.918697794  0.500339968  0.603927265

  ion indices of the primitive-cell ions
   primitive index   ion index
                 1           1
                 2           2
                 3           3
                 4           4
                 5           5
                 6           6
                 7           7
                 8           8
                 9           9
                10          10
                11          11
                12          12
                13          13
                14          14
                15          15
                16          16
                17          17
                18          18
                19          19
                20          20
                21          21
                22          22
                23          23
                24          24
                25          25
                26          26
                27          27
                28          28
                29          29
                30          30
                31          31
                32          32
                33          33
                34          34
                35          35
                36          36
                37          37
                38          38
                39          39
                40          40
                41          41
                42          42
                43          43
                44          44
                45          45
                46          46
                47          47
                48          48
                49          49
                50          50
                51          51
                52          52
                53          53
                54          54
                55          55
                56          56
                57          57
                58          58
                59          59
                60          60
                61          61
                62          62
                63          63
                64          64
                65          65
                66          66
                67          67
                68          68
                69          69
                70          70
                71          71
                72          72
                73          73
                74          74
                75          75
                76          76
                77          77
                78          78
                79          79
                80          80
                81          81
                82          82
                83          83
                84          84
                85          85
                86          86
                87          87
                88          88
                89          89
                90          90
                91          91
                92          92
                93          93
                94          94
                95          95
                96          96
                97          97
                98          98
                99          99
               100         100
               101         101
               102         102
               103         103
               104         104
               105         105
               106         106
               107         107
               108         108
               109         109
               110         110
               111         111
               112         112
               113         113
               114         114
               115         115
               116         116
               117         117
               118         118
               119         119
               120         120
               121         121
               122         122
               123         123
               124         124
               125         125
               126         126
               127         127
               128         128
               129         129
               130         130
               131         131
               132         132
               133         133
               134         134
               135         135
               136         136
               137         137
               138         138
               139         139
               140         140
               141         141
               142         142
               143         143
               144         144
               145         145
               146         146
               147         147
               148         148
               149         149
               150         150
               151         151
               152         152
               153         153
               154         154
               155         155
               156         156
               157         157
               158         158
               159         159
               160         160
               161         161
               162         162
               163         163
               164         164
               165         165
               166         166
               167         167
               168         168
               169         169
               170         170

----------------------------------------------------------------------------------------

 
 
 KPOINTS: KPOINTS created by Atomic Simulation Env

Automatic generation of k-mesh.
 Grid dimensions read from file:
 generate k-points for:    1    1    1

 Generating k-lattice:

  Cartesian coordinates                     Fractional coordinates (reciprocal lattice)
     0.042246178  0.000000000  0.000000000     1.000000000  0.000000000  0.000000000
     0.000000000  0.044808838  0.000000000     0.000000000  1.000000000  0.000000000
     0.000000000  0.000000000  0.033333333     0.000000000  0.000000000  1.000000000

  Length of vectors
     0.042246178  0.044808838  0.033333333

  Shift w.r.t. Gamma in fractional coordinates (k-lattice)
     0.000000000  0.000000000  0.000000000

 
 Subroutine IBZKPT returns following result:
 ===========================================
 
 Found      1 irreducible k-points:
 
 Following reciprocal coordinates:
            Coordinates               Weight
  0.000000  0.000000  0.000000      1.000000
 
 Following cartesian coordinates:
            Coordinates               Weight
  0.000000  0.000000  0.000000      1.000000
 


--------------------------------------------------------------------------------------------------------




 Dimension of arrays:
   k-points           NKPTS =      1   k-points in BZ     NKDIM =      1   number of bands    NBANDS=    912
   number of dos      NEDOS =    301   number of ions     NIONS =    170
   non local maximal  LDIM  =      6   non local SUM 2l+1 LMDIM =     18
   total plane-waves  NPLWV = ******
   max r-space proj   IRMAX =   3047   max aug-charges    IRDMAX=  11634
   dimension x,y,z NGX =   140 NGY =  126 NGZ =  168
   dimension x,y,z NGXF=   280 NGYF=  252 NGZF=  336
   support grid    NGXF=   280 NGYF=  252 NGZF=  336
   ions per type =              50  72  24  24
   NGX,Y,Z   is equivalent  to a cutoff of   9.83,  9.39,  9.31 a.u.
   NGXF,Y,Z  is equivalent  to a cutoff of  19.67, 18.77, 18.62 a.u.

 SYSTEM =  unknown system                          
 POSCAR =  Au  O Sr Ti                             

 Startparameter for this run:
   NWRITE =      2    write-flag & timer
   PREC   = normal    normal or accurate (medium, high low for compatibility)
   ISTART =      0    job   : 0-new  1-cont  2-samecut
   ICHARG =      2    charge: 1-file 2-atom 10-const
   ISPIN  =      1    spin polarized calculation?
   LNONCOLLINEAR =      F non collinear calculations
   LSORBIT =      F    spin-orbit coupling
   INIWAV =      1    electr: 0-lowe 1-rand  2-diag
   LASPH  =      F    aspherical Exc in radial PAW
 Electronic Relaxation 1
   ENCUT  =  500.0 eV  36.75 Ry    6.06 a.u.  43.16 40.69 54.70*2*pi/ulx,y,z
   ENINI  =  500.0     initial cutoff
   ENAUG  =  605.4 eV  augmentation charge cutoff
   NELM   =    200;   NELMIN=  2; NELMDL= -5     # of ELM steps 
   EDIFF  = 0.1E-04   stopping-criterion for ELM
   LREAL  =      T    real-space projection
   NLSPLINE    = F    spline interpolate recip. space projectors
   LCOMPAT=      F    compatible to vasp.4.4
   GGA_COMPAT  = T    GGA compatible to vasp.4.4-vasp.4.6
   LMAXPAW     = -100 max onsite density
   LMAXMIX     =    2 max onsite mixed and CHGCAR
   VOSKOWN=      0    Vosko Wilk Nusair interpolation
   ROPT   =   -0.00050  -0.00050  -0.00050  -0.00050
 Ionic relaxation
   EDIFFG = -.5E-01   stopping-criterion for IOM
   NSW    =      0    number of steps for IOM
   NBLOCK =      1;   KBLOCK =      1    inner block; outer block 
   IBRION =     -1    ionic relax: 0-MD 1-quasi-New 2-CG
   NFREE  =      1    steps in history (QN), initial steepest desc. (CG)
   ISIF   =      2    stress and relaxation
   IWAVPR =     10    prediction:  0-non 1-charg 2-wave 3-comb
   ISYM   =      2    0-nonsym 1-usesym 2-fastsym
   LCORR  =      T    Harris-Foulkes like correction to forces

   POTIM  = 0.5000    time-step for ionic-motion
   TEIN   =    0.0    initial temperature
   TEBEG  =    0.0;   TEEND  =   0.0 temperature during run
   SMASS  =  -3.00    Nose mass-parameter (am)
   estimated Nose-frequenzy (Omega)   =  0.10E-29 period in steps = 0.13E+47 mass=  -0.128E-25a.u.
   SCALEE = 1.0000    scale energy and forces
   NPACO  =    256;   APACO  = 10.0  distance and # of slots for P.C.
   PSTRESS=    0.0 pullay stress

  Mass of Ions in am
   POMASS = 196.97 16.00 87.62 47.88
  Ionic Valenz
   ZVAL   =  11.00  6.00 10.00 12.00
  Atomic Wigner-Seitz radii
   RWIGS  =  -1.00 -1.00 -1.00 -1.00
  virtual crystal weights 
   VCA    =   1.00  1.00  1.00  1.00
   NELECT =    1510.0000    total number of electrons
   NUPDOWN=      -1.0000    fix difference up-down

 DOS related values:
   EMIN   =  10.00;   EMAX   =-10.00  energy-range for DOS
   EFERMI =   0.00
   ISMEAR =     0;   SIGMA  =   0.01  broadening in eV -4-tet -1-fermi 0-gaus

 Electronic relaxation 2 (details)
   IALGO  =     58    algorithm
   LDIAG  =      T    sub-space diagonalisation (order eigenvalues)
   LSUBROT=      F    optimize rotation matrix (better conditioning)
   TURBO    =      0    0=normal 1=particle mesh
   IRESTART =      0    0=no restart 2=restart with 2 vectors
   NREBOOT  =      0    no. of reboots
   NMIN     =      0    reboot dimension
   EREF     =   0.00    reference energy to select bands
   IMIX   =      4    mixing-type and parameters
     AMIX     =   0.40;   BMIX     =  1.00
     AMIX_MAG =   1.60;   BMIX_MAG =  1.00
     AMIN     =   0.10
     WC   =   100.;   INIMIX=   1;  MIXPRE=   1;  MAXMIX= -45

 Intra band minimization:
   WEIMIN = 0.0000     energy-eigenvalue tresh-hold
   EBREAK =  0.27E-08  absolut break condition
   DEPER  =   0.30     relativ break condition  

   TIME   =   0.40     timestep for ELM

  volume/ion in A,a.u.               =      93.22       629.10
  Fermi-wavevector in a.u.,A,eV,Ry     =   0.747728  1.413001  7.606983  0.559097
  Thomas-Fermi vector in A             =   1.843851
 
 Write flags
   LWAVE        =      F    write WAVECAR
   LDOWNSAMPLE  =      F    k-point downsampling of WAVECAR
   LCHARG       =      F    write CHGCAR
   LVTOT        =      F    write LOCPOT, total local potential
   LVHAR        =      F    write LOCPOT, Hartree potential only
   LELF         =      F    write electronic localiz. function (ELF)
   LORBIT       =      0    0 simple, 1 ext, 2 COOP (PROOUT), +10 PAW based schemes


 Dipole corrections
   LMONO  =      F    monopole corrections only (constant potential shift)
   LDIPOL =      T    correct potential (dipole corrections)
   IDIPOL =      3    1-x, 2-y, 3-z, 4-all directions 
   EPSILON=  1.0000000 bulk dielectric constant

 Exchange correlation treatment:
   GGA     =    BF    GGA type
   LEXCH   =    17    internal setting for exchange type
   LIBXC   =     F    Libxc                    
   VOSKOWN =     0    Vosko Wilk Nusair interpolation
   LHFCALC =     F    Hartree Fock is set to
   LHFONE  =     F    Hartree Fock one center treatment
   AEXX    =    0.0000 exact exchange contribution

 vdW DFT:
   LUSE_VDW   =     T    switch on vdW DFT
   Zab_VDW    =******    correlation parameter
   PARAM1     =0.1234
   PARAM2     =1.0000
   PARAM3     =0.0000
   -- rVV10 --
   BPARAM     = 6.3000
   CPARAM     = 0.0093

 Linear response parameters
   LEPSILON=     F    determine dielectric tensor
   LRPA    =     F    only Hartree local field effects (RPA)
   LNABLA  =     F    use nabla operator in PAW spheres
   LVEL    =     F    velocity operator in full k-point grid
   CSHIFT  =0.1000    complex shift for real part using Kramers Kronig
   OMEGAMAX=  -1.0    maximum frequency
   DEG_THRESHOLD= 0.2000000E-02 threshold for treating states as degnerate
   RTIME   =   -0.100 relaxation time in fs
  (WPLASMAI=    0.000 imaginary part of plasma frequency in eV, 0.658/RTIME)
   DFIELD  = 0.0000000 0.0000000 0.0000000 field for delta impulse in time
 
  Optional k-point grid parameters
   LKPOINTS_OPT  =     F    use optional k-point grid
   KPOINTS_OPT_MODE=     1    mode for optional k-point grid
 
 Orbital magnetization related:
   ORBITALMAG=     F  switch on orbital magnetization
   LCHIMAG   =     F  perturbation theory with respect to B field
   DQ        =  0.001000  dq finite difference perturbation B field
   LLRAUG    =     F  two centre corrections for induced B field



--------------------------------------------------------------------------------------------------------


 Static calculation
 charge density and potential will be updated during run
 non-spin polarized calculation
 Conjugate gradient for all bands (Freysoldt, et al. PRB 79, 241103 (2009))
 preconditioned conjugated gradient                                        
 perform sub-space diagonalisation
    before iterative eigenvector-optimisation
 modified Broyden-mixing scheme, WC =      100.0
 initial mixing is a Kerker type mixing with AMIX =  0.4000 and BMIX =      1.0000
 Hartree-type preconditioning will be used
 using additional bands          157
 real space projection scheme for non local part
 use partial core corrections
 no Harris-corrections to forces 
 use gradient corrections 
 use of overlap-Matrix (Vanderbilt PP)
 Gauss-broadening in eV      SIGMA  =   0.01


--------------------------------------------------------------------------------------------------------


  energy-cutoff  :      500.00
  volume of cell :    15847.84
      direct lattice vectors                 reciprocal lattice vectors
    23.670780182  0.000000000  0.000000000     0.042246178  0.000000000  0.000000000
     0.000000000 22.317026138  0.000000000     0.000000000  0.044808838  0.000000000
     0.000000000  0.000000000 30.000000000     0.000000000  0.000000000  0.033333333

  length of vectors
    23.670780182 22.317026138 30.000000000     0.042246178  0.044808838  0.033333333


 
 k-points in units of 2pi/SCALE and weight: KPOINTS created by Atomic Simulation Env
   0.00000000  0.00000000  0.00000000       1.000
 
 k-points in reciprocal lattice and weights: KPOINTS created by Atomic Simulation Env
   0.00000000  0.00000000  0.00000000       1.000
 
 position of ions in fractional coordinates (direct lattice) 
   0.71925348  0.52523664  0.75394177
   0.62582714  0.56554523  0.70384985
   0.71880785  0.25893715  0.69168628
   0.28814867  0.74488472  0.69934992
   0.51517163  0.60408580  0.77707211
   0.57702638  0.72586343  0.79224670
   0.55044865  0.38439721  0.82965744
   0.24296203  0.46702563  0.70911512
   0.28205278  0.66005318  0.76659135
   0.60237655  0.28863856  0.78807417
   0.51494604  0.48282522  0.67806241
   0.56257465  0.48566230  0.76278964
   0.46376300  0.69493963  0.82974796
   0.76448235  0.43017818  0.70554006
   0.73386633  0.61562639  0.69407424
   0.63667970  0.58294848  0.80019445
   0.59446392  0.78534381  0.71244113
   0.48302828  0.78008969  0.75754722
   0.35006938  0.50224426  0.69731421
   0.43132165  0.37190141  0.81583140
   0.37294533  0.29868508  0.75587632
   0.44067086  0.22852763  0.69708975
   0.38680676  0.81369610  0.70605407
   0.29013881  0.53573425  0.77782807
   0.55508837  0.20710650  0.71174626
   0.45510732  0.57999338  0.70317561
   0.61311451  0.31811798  0.69793572
   0.70523818  0.75761630  0.68846297
   0.65653180  0.44124336  0.81248818
   0.36866898  0.61766642  0.82015297
   0.57140731  0.51018268  0.85706335
   0.66441394  0.19390097  0.75209329
   0.47266332  0.45105349  0.87948042
   0.51614315  0.37701585  0.73422679
   0.28395694  0.33721271  0.70269064
   0.66956920  0.68089626  0.74908646
   0.39810248  0.38258097  0.69060570
   0.37629141  0.49214609  0.83361900
   0.46410577  0.57354409  0.86333067
   0.32700897  0.41366172  0.76963347
   0.48740774  0.26807209  0.77524527
   0.42960946  0.69909774  0.69879715
   0.69994914  0.34552360  0.75682187
   0.77447705  0.42808943  0.79600679
   0.25541911  0.59185822  0.69537476
   0.64743165  0.43951556  0.69757835
   0.56634297  0.64060650  0.86087099
   0.54788729  0.66396359  0.70165865
   0.44314099  0.47468263  0.75616882
   0.37269536  0.73542493  0.77747625
   0.99965000  0.49807194  0.59434416
   0.99925928  0.75425071  0.59198242
   0.33467682  0.25413385  0.59263632
   0.33401942  0.99985228  0.59201377
   0.99965017  0.99807627  0.59281364
   0.00111401  0.24985813  0.59192819
   0.33369830  0.49692818  0.59097328
   0.33527919  0.73936093  0.59167298
   0.66349000  0.24711263  0.59078844
   0.66583271  0.00044736  0.59187648
   0.66588720  0.74211598  0.58998673
   0.66715010  0.49307501  0.59099655
   0.16740661  0.99830808  0.59225587
   0.16855022  0.24916195  0.59305152
   0.17064744  0.74987991  0.59499670
   0.16544204  0.50360846  0.58820150
   0.49841303  0.50392437  0.60893608
   0.49855752  0.25287142  0.59032980
   0.49964888  0.99995608  0.59100187
   0.75343149  0.69345130  0.65751140
   0.74862122  0.93670791  0.63981231
   0.25338503  0.18646401  0.64114623
   0.74570255  0.19419036  0.64673399
   0.75589646  0.43604718  0.63907026
   0.41729483  0.93505133  0.63975257
   0.42188260  0.67575037  0.63362655
   0.58994966  0.81056340  0.64563424
   0.91620944  0.06231821  0.64134942
   0.91379086  0.56147665  0.64261650
   0.91537407  0.31199758  0.63948390
   0.91425169  0.81247004  0.64190027
   0.58218085  0.06551524  0.63984369
   0.58313023  0.31928342  0.63428817
   0.59276722  0.56421219  0.63973061
   0.24785748  0.57393090  0.62911186
   0.26107032  0.79809811  0.64736338
   0.24964409  0.31642417  0.64143305
   0.25082234  0.05944897  0.64199625
   0.58198274  0.43809875  0.64581325
   0.58026886  0.68488448  0.63815659
   0.91716802  0.18654752  0.64058174
   0.58201391  0.93550407  0.63925703
   0.83035679  0.75033903  0.59340344
   0.83173558  0.24784095  0.59148361
   0.83331348  0.50375507  0.58951363
   0.83220505  0.00200707  0.59221431
   0.50087241  0.75636286  0.59274607
   0.41774751  0.06528569  0.63988620
   0.42652814  0.30496069  0.65520400
   0.41187411  0.81243931  0.63975951
   0.39974149  0.55124042  0.65205691
   0.75209517  0.57108889  0.63428471
   0.74094903  0.80998193  0.64007117
   0.74675162  0.31264071  0.64007602
   0.74766336  0.06693520  0.63907534
   0.08405637  0.31189181  0.64040486
   0.08608849  0.56171689  0.64247960
   0.08349130  0.06042319  0.64145107
   0.08709733  0.43654586  0.63967073
   0.08365148  0.18563730  0.64097063
   0.41851154  0.18790293  0.63986108
   0.41518752  0.41890457  0.62996008
   0.08439160  0.93516890  0.64089269
   0.08246455  0.68729941  0.63994370
   0.91251523  0.43612008  0.63971316
   0.91669769  0.68737932  0.63990001
   0.91389069  0.93660006  0.64084758
   0.24103318  0.44220787  0.64162002
   0.24869889  0.67671879  0.66544617
   0.57866682  0.19032336  0.64422419
   0.25203620  0.93003254  0.63735037
   0.08380030  0.81151859  0.64208905
   0.00065996  0.12281341  0.61889764
   0.83706966  0.37258588  0.60430107
   0.83198682  0.87530281  0.61842448
   0.84095234  0.62647195  0.60297042
   0.99895463  0.87480217  0.62233958
   0.33147935  0.11985286  0.61327045
   0.33469862  0.62358503  0.59538795
   0.32602317  0.37378744  0.59290401
   0.67107928  0.37186685  0.59433846
   0.66543921  0.12443729  0.61173862
   0.33460148  0.87885581  0.60286082
   0.15835036  0.62715837  0.60240955
   0.16640321  0.87210343  0.61957670
   0.50183443  0.37108876  0.59496304
   0.50030074  0.12189219  0.60599006
   0.16751561  0.12254667  0.62130459
   0.16356090  0.37171412  0.60777685
   0.66522058  0.88095541  0.60690789
   0.66634538  0.62668659  0.59352432
   0.00021376  0.37493840  0.62253068
   0.99960254  0.62262806  0.64697394
   0.83373366  0.12470821  0.61926699
   0.50036108  0.87666594  0.60987535
   0.50403917  0.62475789  0.59393399
   0.91622123  0.99976144  0.60368242
   0.58446729  0.75026139  0.59934087
   0.59089524  0.50066582  0.59376831
   0.24222815  0.49844267  0.59397613
   0.24944843  0.75244851  0.59217743
   0.58434988  0.24717083  0.59722037
   0.58254299  0.00093801  0.60427525
   0.24943584  0.99743430  0.60412851
   0.24925673  0.24594696  0.60371609
   0.41706776  0.00009256  0.60462241
   0.41478822  0.24851719  0.59101754
   0.41616614  0.74985137  0.59468241
   0.75649672  0.50264640  0.59573330
   0.75176560  0.75255848  0.59059457
   0.75408482  0.24795057  0.59438816
   0.74963640  0.00169270  0.60414012
   0.08384335  0.24809598  0.60368071
   0.08107351  0.50044816  0.60369572
   0.07996852  0.75076325  0.60307124
   0.08324758  0.99803101  0.60348106
   0.91808097  0.75124357  0.60332539
   0.41176378  0.49718516  0.59316966
   0.92000032  0.24847938  0.60272832
   0.91869779  0.50033997  0.60392726
 
 position of ions in cartesian coordinates  (Angst):
  17.02529091 11.72171977 22.61825323
  14.81381675 12.62128759 21.11549543
  17.01474268  5.77870704 20.75058853
   6.82070391 16.62361170 20.98049749
  12.19451432 13.48139852 23.31216316
  13.65866465 16.19911320 23.76740092
  13.02954897  8.57860257 24.88972327
   5.75110073 10.42262328 21.27345364
   6.67640942 14.73042415 22.99774062
  14.25872279  6.44155439 23.64222497
  12.18917464 10.77522307 20.34187243
  13.31658083 10.83853815 22.88368913
  10.97763208 15.50898597 24.89243878
  18.09589366  9.60029779 21.16620179
  17.37118866 13.73895034 20.82222709
  15.07070527 13.00967652 24.00583344
  14.07142469 17.52653827 21.37323398
  11.43365622 17.40928210 22.72641669
   8.28641530 11.20859825 20.91942628
  10.20972003  8.29973340 24.47494188
   8.82790690  6.66576272 22.67628954
  10.43102309  5.10005711 20.91269264
   9.15601779 18.15927714 21.18162217
   6.86781191 11.95599516 23.33484210
  13.13937468  4.62200127 21.35238789
  10.77274534 12.94372747 21.09526821
  14.51289874  7.09944722 20.93807168
  16.69353787 16.90774285 20.65388924
  15.54062002  9.84723952 24.37464542
   8.72668228 13.78447759 24.60458912
  13.52565672 11.38576012 25.71190055
  15.72719644  4.32729312 22.56279863
  11.18830948 10.06617245 26.38441261
  12.21751102  8.41387256 22.02680360
   6.72148222  7.52558482 21.08071928
  15.84922526 15.19557952 22.47259392
   9.42339631  8.53806950 20.71817092
   8.90711131 10.98323716 25.00857013
  10.98574555 12.79979836 25.89992006
   7.74055744  9.23169940 23.08900403
  11.53732137  5.98257185 23.25735819
  10.16919118 15.60178250 20.96391436
  16.56834226  7.71105912 22.70465600
  18.33247608  9.55368308 23.88020361
   6.04596950 13.20851540 20.86124293
  15.32521230  9.80868018 20.92735059
  13.40577990 14.29643206 25.82612976
  12.96891963 14.81769277 21.04975960
  10.48949295 10.59350469 22.68506454
   8.82199001 16.41249735 23.32428747
  23.66249538 11.11548459 17.83032474
  23.65324677 16.83263276 17.75947271
   7.92206147  5.67151179 17.77908966
   7.90650034 22.31372936 17.76041322
  23.66249942 22.27409423 17.78440911
   0.02636938  5.57609035 17.75784565
   7.89889903 11.08995916 17.72919845
   7.93632009 16.50033722 17.75018937
  15.70532593  5.51481893 17.72365324
  15.76077977  0.00998383 17.75629441
  15.76206951 16.56182165 17.69960204
  15.79196337 11.00396782 17.72989641
   3.96264503 22.27926750 17.76767618
   3.98971527  5.56055382 17.79154555
   4.03935813 16.73508959 17.84990090
   3.91614225 11.23904319 17.64604496
  11.79782523 11.24609330 18.26808237
  11.80124542  5.64333807 17.70989387
  11.82707873 22.31604604 17.73005618
  17.83431117 15.47577088 19.72534210
  17.72044845 20.90453481 19.19436924
   5.99782140  4.16132208 19.23438689
  17.65136122  4.33375132 19.40201979
  17.89265902  9.73127641 19.17210773
   9.87769412 20.86756498 19.19257702
   9.98629020 15.08073864 19.00879639
  13.96456872 18.08936468 19.36902707
  21.68739215  1.39075715 19.24048256
  21.63014263 12.53048908 19.27849493
  21.66761841  6.96285814 19.18451693
  21.64105090 18.13191521 19.25700801
[...]
  281          phaser                                0.000002                          3   4
  282          rpro_isp                              1.497027                          3   4
  283            fftwav_mpi                            1.335293                      171   5
  284              fft3d_mpi                             1.120163                    171   6
  285                fftbrc_mpi                            0.893852                  171   7
  286                  fftbas_plan_mpi                       0.893339                171   8
  287                    dfftw_execute                         0.443440              513   9
  288                    map_forward                           0.351452              342   9
  289                      map_gather                            0.040856            171  10
  290                      m_alltoallv_z                         0.100699            171  10
  291                      map_scatter                           0.066006            171  10
  292            rpromu                                0.155660                       45   5
  293              rpromu_gemm                           0.046005                   6885   6
  294              m_sumb_d                              0.026787                    171   6
  295          m_sumb_d                              0.007582                          1   4
  296        fordep                                0.095035                            1   3
  297          setdij_                               0.094815                          6   4
  298            m_sumb_d                              0.019706                        6   5
  299          m_sumb_d                              0.000043                          1   4
  300        setdij_                               0.303192                           20   3
  301          m_sumb_d                              0.053803                         20   4
  302        set_dd_magatom                        0.000012                            1   3
  303        set_dd_paw                            0.014365                            1   3
  304          set_rsgf_all                          0.000002                          1   4
  305          m_sumb_d                              0.014202                          7   4
  306        strkin                                0.004931                            1   3
  307          m_sumb_d                              0.000555                          1   4
  308        strelo                                0.010709                            1   3
  309          m_sumb_d                              0.002393                          2   4
  310        strnlr                                4.661073                            1   3
  311          rspher_all                            0.179469                          9   4
  312          phaser                                0.000006                          9   4
  313          rpro_isp                              4.432783                          9   4
  314            fftwav_mpi                            3.990680                      513   5
  315              fft3d_mpi                             3.361642                    513   6
  316                fftbrc_mpi                            2.678786                  513   7
  317                  fftbas_plan_mpi                       2.677220                513   8
  318                    dfftw_execute                         1.335222             1539   9
  319                    map_forward                           1.051978             1026   9
  320                      map_gather                            0.125061            513  10
  321                      m_alltoallv_z                         0.296188            513  10
  322                      map_scatter                           0.196849            513  10
  323            rpromu                                0.436122                      135   5
  324              rpromu_gemm                           0.139591                  20655   6
  325              m_sumb_d                              0.044710                    513   6
  326          m_sumb_d                              0.041225                          1   4
  327        m_sumb_d                              0.002355                            7   3
  328        fft3d_mpi                             0.641737                           71   3
  329          fftbrc_mpi                            0.599111                         71   4
  330            fftbas_plan_mpi                       0.598823                       71   5
  331              dfftw_execute                         0.175519                    213   6
  332              map_forward                           0.152865                     70   6
  333                map_gather                            0.011625                   35   7
  334                m_alltoallv_z                         0.106705                   35   7
  335                map_scatter                           0.033875                   35   7
  336              map_backward                          0.224479                     72   6
  337                map_gather                            0.040171                   36   7
  338                m_alltoallv_z                         0.165282                   36   7
  339                map_scatter                           0.018337                   36   7
  340        ggaall_grid                           0.356382                            1   3
  341        forhar                                0.313184                            1   3
  342          m_sumb_d                              0.000170                          1   4
  343        strehar                               0.014804                            1   3
  344          m_sumb_d                              0.004146                          1   4
  345        m_bcast_d                             0.001239                            2   3
  346      potlok                               12.449851                              1   2
  347        fft3d_mpi                             3.453451                          329   3
  348          fftbrc_mpi                            3.264900                        329   4
  349            fftbas_plan_mpi                       3.263756                      329   5
  350              dfftw_execute                         0.789165                    987   6
  351              map_forward                           0.843423                    330   6
  352                map_gather                            0.068606                  166   7
  353                m_alltoallv_z                         0.613904                  166   7
  354                map_scatter                           0.157595                  166   7
  355              map_backward                          1.413991                    328   6
  356                map_gather                            0.179026                  164   7
  357                m_alltoallv_z                         1.149369                  164   7
  358                map_scatter                           0.082280                  164   7
  359        ggaall_grid                           4.815446                           33   3
  360        m_sumb_d                              0.026154                          168   3
  361        fewald                                0.001647                            2   3
  362          rsp                                   0.001431                          2   4
  363          rcp                                   0.000194                          2   4
  364        pothar                                0.001575                            1   3
  365          m_sumb_d                              0.000594                          1   4
  366        m_bcast_d                             0.006216                            1   3
  367      potlok_metagga                        0.000007                              1   2
  368      set_dd_magatom                        0.000002                              1   2
  369      set_dd_paw                            0.011923                              1   2
  370        set_rsgf_all                          0.000001                            1   3
  371        m_sumb_d                              0.011556                            7   3
 
 Flat profile
 ============
 
             routine name                   CPU           calls
 ---------------------------------------------------------------
 potlok                                400.671957         114
 edwav                                 167.011761         112
 dfftw_execute                          84.955044      102003
 m_alltoallv_z                          52.491917       34228
 ggaall_grid                            46.515865         147
 total_time                             44.011542           1
 m_alltoall_d                           43.293336      116839
 fft3d_mpi                              36.586399       34001
 lincom                                 30.411450         343
 fftwav_mpi                             21.968132       17627
 orth1                                  21.920380        9669
 fftbas_plan_mpi                        20.192300       34001
 m_sumb_d                               19.332299       57923
 map_scatter                            15.766113       34228
 map_forward                            15.747211       44018
 map_gather                             14.776211       34228
 eccp                                   14.713517       13053
 eddav                                  10.690605           5
 vhamil                                  7.359085        4306
 pw_charge                               6.674989        5424
 m_bcast_z                               5.560257         969
 racc0                                   5.087743        4249
 choleski                                4.448890         113
 rpro1                                   4.294141        3964
 w1_dscal                                3.632438        3192
 force_and_stress                        3.482005           1
 ggemm                                   2.904259        1342
 augmentation_charge                     1.966737         113
 eddiag                                  1.857418          57
 setdij_                                 1.825467         141
 redis_pw                                1.572830       16005
 lapack                                  1.537491        1057
 fftext_mpi                              1.270166        7498
 m_bcast_d                               0.978353        3290
 elmin_all                               0.765207           1
 redis_proj                              0.405666       14482
 rpromu                                  0.363788         195
 kinhamil                                0.314092        4306
 forhar                                  0.313014           1
 forloc                                  0.309702           1
 soft_charge                             0.305089         113
 rspher_all                              0.274430          14
 map_backward                            0.241764       23984
 orthch                                  0.237273         113
 overl                                   0.214516        5247
 rpromu_gemm                             0.212938       29835
 stufak                                  0.193433           1
 w1_copy                                 0.186540        3171
 rsp                                     0.155213         229
 pothar                                  0.117107         114
 fftbrc_mpi                              0.111839       34001
 densta                                  0.097442         124
 apply_precond                           0.075071         772
 set_charge                              0.073775         113
 inisym                                  0.063176           1
 depsum                                  0.049909         113
 setup_precond                           0.042336         285
 fft_gq                                  0.040143         113
 hamilt_local                            0.031132        3249
 overl1                                  0.029704        1057
 set_dd_paw                              0.026888         115
 hamiltmu                                0.017132        1057
 rpro_isp                                0.016658          13
 rcp                                     0.014724         229
 newband                                 0.012956        1062
 raccmu_                                 0.011714        1057
 strehar                                 0.010658           1
 fewald                                  0.008429         229
 strelo                                  0.008316           1
 strnlr                                  0.007590           1
 strkin                                  0.004376           1
 w1_projall                              0.003964         772
 fornlr                                  0.002078           1
 brgrid                                  0.001915           1
 truncate_high_frequency_w1              0.001321        1342
 redis_pw_all                            0.000830         112
 potlok_metagga                          0.000531         114
 redis_pw_over_bands                     0.000512         113
 crpa_reader                             0.000274           1
 set_rsgf_all                            0.000233         115
 fordep                                  0.000177           1
 posmap                                  0.000063           2
 phaser                                  0.000046          74
 vectorpot                               0.000033           1
 proall                                  0.000024           1
 rotate_active_occupied_orbital          0.000023           1
 set_dd_magatom                          0.000014           2
 shift_bands_between_low_high            0.000002           1
 ---------------------------------------------------------------
  summed up times    1120.88408994675     
 
 Accumulative profile
 ====================
 
             routine name                   CPU           calls
 ---------------------------------------------------------------
 total_time                           1120.884090           1
 elmin_all                            1045.677182           1
 potlok                                528.899913         114
 edwav                                 387.229877         112
 fft3d_mpi                             240.868799       34001
 fftbrc_mpi                            204.282400       34001
 fftbas_plan_mpi                       204.170561       34001
 fftwav_mpi                            139.708765       17627
 dfftw_execute                          84.955044      102003
 map_forward                            60.002725       44018
 set_charge                             53.622213         113
 m_alltoallv_z                          52.491917       34228
 eddav                                  52.013758           5
 soft_charge                            50.354437         113
 ggaall_grid                            46.515865         147
 m_alltoall_d                           43.293336      116839
 fftext_mpi                             41.126210        7498
 map_backward                           39.020492       23984
 eddiag                                 32.021152          57
 lincom                                 30.411450         343
 orthch                                 29.255352         113
 redis_pw                               27.845414       16005
 kinhamil                               23.452638        4306
 hamilt_local                           23.231530        3249
 orth1                                  21.920380        9669
 m_sumb_d                               19.332299       57923
 redis_proj                             17.426417       14482
 map_scatter                            15.766113       34228
 eccp                                   15.445553       13053
 map_gather                             14.776211       34228
 force_and_stress                       11.778253           1
 hamiltmu                                9.088008        1057
 vhamil                                  7.359085        4306
 pw_charge                               6.674989        5424
 rpro_isp                                6.463692          13
 racc0                                   6.227691        4249
 m_bcast_z                               5.560257         969
 rpro1                                   4.889590        3964
 strnlr                                  4.661073           1
 choleski                                4.448890         113
 redis_pw_over_bands                     3.896172         113
 redis_pw_all                            3.895660         112
 w1_dscal                                3.632438        3192
 augmentation_charge                     3.087693         113
 newband                                 2.997363        1062
 ggemm                                   2.904259        1342
 setdij_                                 2.187820         141
 fornlr                                  1.566966           1
 lapack                                  1.537491        1057
 raccmu_                                 1.459552        1057
 set_dd_paw                              1.324515         115
 m_bcast_d                               0.978353        3290
 w1_projall                              0.958639         772
 fft_gq                                  0.742340         113
 rpromu                                  0.655506         195
 proall                                  0.533907           1
 densta                                  0.510819         124
 forhar                                  0.313184           1
 forloc                                  0.310265           1
 rspher_all                              0.274430          14
 overl                                   0.214516        5247
 rpromu_gemm                             0.212938       29835
 stufak                                  0.193433           1
 w1_copy                                 0.186540        3171
 fewald                                  0.182140         229
 pothar                                  0.178898         114
 rsp                                     0.155213         229
 depsum                                  0.106308         113
 fordep                                  0.095035           1
 apply_precond                           0.075071         772
 inisym                                  0.063239           1
 setup_precond                           0.050629         285
 overl1                                  0.029704        1057
 strehar                                 0.014804           1
 rcp                                     0.014724         229
 strelo                                  0.010709           1
 strkin                                  0.004931           1
 brgrid                                  0.001915           1
 truncate_high_frequency_w1              0.001321        1342
 potlok_metagga                          0.000531         114
 crpa_reader                             0.000274           1
 set_rsgf_all                            0.000233         115
 posmap                                  0.000063           2
 phaser                                  0.000046          74
 vectorpot                               0.000033           1
 rotate_active_occupied_orbital          0.000023           1
 set_dd_magatom                          0.000014           2
 shift_bands_between_low_high            0.000002           1
 ---------------------------------------------------------------
 
Profiling took   0.930214  0.291002  0.009024  0.008236 seconds
Profiling took   1.218962 seconds
