 vasp.6.3.2 27Jun22 (build Jan 03 2024 23:05:41) complex                        
  
 executed on           IFC15_impi date 2024.03.20  21:57:12
 running   48 mpi-ranks, with    1 threads/rank
 distrk:  each k-point on   48 cores,    1 groups
 distr:  one band on NCORE=   1 cores,   48 groups


--------------------------------------------------------------------------------------------------------


 INCAR:
   ENCUT = 500.000000
   SIGMA = 0.010000
   EDIFF = 1.00e-05
   ALGO = A
   ISMEAR = 0
   NELM = 200
   NSW = 500
   LCHARG = .FALSE.
   LWAVE = .FALSE.
   LREAL = Auto
   IBRION = 2
   EDIFFG = -0.02
   GGA = BF
   LUSE_VDW = .TRUE.
   ZAB_VDW = -1.8867
   LBEEFENS = .TRUE.

 POTCAR:    PAW_PBE C 08Apr2002                   
 POTCAR:    PAW_PBE O 08Apr2002                   
 -----------------------------------------------------------------------------
|                                                                             |
|               ----> ADVICE to this user running VASP <----                  |
|                                                                             |
|     You have switched on vdW-DFT.                                           |
|     This routine was written and supplied by Jiri Klimes. We recommend      |
|     that you carefully read and cite the following publications:            |
|       J. Klimes, D.R. Bowler, A. Michelides                                 |
|          J. Phys.: Cond Matt. 22 022201 (2010)                              |
|       J. Klimes, D.R. Bowler, A. Michelides                                 |
|          Phys. Rev. B. 83, 195131 (2011)                                    |
|     and references therein.                                                 |
|                                                                             |
 -----------------------------------------------------------------------------

 POTCAR:    PAW_PBE C 08Apr2002                   
   SHA256 =  253f7b50bb8d59471dbedb8285d89021f4a42ed1a2c5d38a03a736e69125dd95 C/POTCAR              
   COPYR  = (c) Copyright 08Apr2002 Georg Kresse                                                    
   COPYR  = This file is part of the software VASP. Any use, copying, and all other rights are regul
   COPYR  = If you do not have a valid VASP license, you may not use, copy or distribute this file. 
   VRHFIN =C: s2p2                                                                                  
   LEXCH  = PE                                                                                      
   EATOM  =   147.1560 eV,   10.8157 Ry                                                             
                                                                                                    
   TITEL  = PAW_PBE C 08Apr2002                                                                     
   LULTRA =        F    use ultrasoft PP ?                                                          
   IUNSCR =        1    unscreen: 0-lin 1-nonlin 2-no                                               
   RPACOR =    1.200    partial core radius                                                         
   POMASS =   12.011; ZVAL   =    4.000    mass and valenz                                          
   RCORE  =    1.500    outmost cutoff radius                                                       
   RWIGS  =    1.630; RWIGS  =    0.863    wigner-seitz radius (au A)                               
   ENMAX  =  400.000; ENMIN  =  300.000 eV                                                          
   ICORE  =        2    local potential                                                             
   LCOR   =        T    correct aug charges                                                         
   LPAW   =        T    paw PP                                                                      
   EAUG   =  644.873                                                                                
   DEXC   =    0.000                                                                                
   RMAX   =    1.529    core radius for proj-oper                                                   
   RAUG   =    1.300    factor for augmentation sphere                                              
   RDEP   =    1.501    radius for radial grids                                                     
   RDEPT  =    1.300    core radius for aug-charge                                                  
                                                                                                    
   Atomic configuration                                                                             
    4 entries                                                                                       
     n  l   j            E        occ.                                                              
     1  0  0.50      -273.3789   2.0000                                                             
     2  0  0.50       -13.7508   2.0000                                                             
     2  1  0.50        -5.2854   2.0000                                                             
     3  2  1.50        -5.4423   0.0000                                                             
   Description                                                                                      
     l       E           TYP  RCUT    TYP  RCUT                                                     
     0    -13.7508458     23  1.200                                                                 
     0     -8.2022199     23  1.200                                                                 
     1     -5.2854383     23  1.500                                                                 
     1     34.0145650     23  1.500                                                                 
     2     -5.4423304      7  1.500                                                                 
  local pseudopotential read in
  partial core-charges read in
  partial kinetic energy density read in
  atomic valenz-charges read in
  non local Contribution for L=           0  read in
    real space projection operators read in
  non local Contribution for L=           0  read in
    real space projection operators read in
  non local Contribution for L=           1  read in
    real space projection operators read in
  non local Contribution for L=           1  read in
    real space projection operators read in
    PAW grid and wavefunctions read in
 
   number of l-projection  operators is LMAX  =           4
   number of lm-projection operators is LMMAX =           8
 
 POTCAR:    PAW_PBE O 08Apr2002                   
   SHA256 =  818f92134a0a090dccd8ba1447fa70422a3b330e708bb4f08108d8ae51209ddf O/POTCAR              
   COPYR  = (c) Copyright 08Apr2002 Georg Kresse                                                    
   COPYR  = This file is part of the software VASP. Any use, copying, and all other rights are regul
   COPYR  = If you do not have a valid VASP license, you may not use, copy or distribute this file. 
   VRHFIN =O: s2p4                                                                                  
   LEXCH  = PE                                                                                      
   EATOM  =   432.3788 eV,   31.7789 Ry                                                             
                                                                                                    
   TITEL  = PAW_PBE O 08Apr2002                                                                     
   LULTRA =        F    use ultrasoft PP ?                                                          
   IUNSCR =        1    unscreen: 0-lin 1-nonlin 2-no                                               
   RPACOR =    1.200    partial core radius                                                         
   POMASS =   16.000; ZVAL   =    6.000    mass and valenz                                          
   RCORE  =    1.520    outmost cutoff radius                                                       
   RWIGS  =    1.550; RWIGS  =    0.820    wigner-seitz radius (au A)                               
   ENMAX  =  400.000; ENMIN  =  300.000 eV                                                          
   ICORE  =        2    local potential                                                             
   LCOR   =        T    correct aug charges                                                         
   LPAW   =        T    paw PP                                                                      
   EAUG   =  605.392                                                                                
   DEXC   =    0.000                                                                                
   RMAX   =    1.553    core radius for proj-oper                                                   
   RAUG   =    1.300    factor for augmentation sphere                                              
   RDEP   =    1.550    radius for radial grids                                                     
   RDEPT  =    1.329    core radius for aug-charge                                                  
                                                                                                    
   Atomic configuration                                                                             
    4 entries                                                                                       
     n  l   j            E        occ.                                                              
     1  0  0.50      -514.6923   2.0000                                                             
     2  0  0.50       -23.9615   2.0000                                                             
     2  1  0.50        -9.0305   4.0000                                                             
     3  2  1.50        -9.5241   0.0000                                                             
   Description                                                                                      
     l       E           TYP  RCUT    TYP  RCUT                                                     
     0    -23.9615318     23  1.200                                                                 
     0     -9.5240782     23  1.200                                                                 
     1     -9.0304911     23  1.520                                                                 
     1      8.1634956     23  1.520                                                                 
     2     -9.5240782      7  1.500                                                                 
  local pseudopotential read in
  partial core-charges read in
  partial kinetic energy density read in
  kinetic energy density of atom read in
  atomic valenz-charges read in
  non local Contribution for L=           0  read in
    real space projection operators read in
  non local Contribution for L=           0  read in
    real space projection operators read in
  non local Contribution for L=           1  read in
    real space projection operators read in
  non local Contribution for L=           1  read in
    real space projection operators read in
    PAW grid and wavefunctions read in
 
   number of l-projection  operators is LMAX  =           4
   number of lm-projection operators is LMMAX =           8
 
 -----------------------------------------------------------------------------
|                                                                             |
|               ----> ADVICE to this user running VASP <----                  |
|                                                                             |
|     You have a (more or less) 'small supercell' and for smaller cells       |
|     it is recommended to use the reciprocal-space projection scheme!        |
|     The real-space optimization is not efficient for small cells and it     |
|     is also less accurate ...                                               |
|     Therefore, set LREAL=.FALSE. in the INCAR file.                         |
|                                                                             |
 -----------------------------------------------------------------------------

 Optimization of the real space projectors (new method)

 maximal supplied QI-value         = 25.13
 optimisation between [QCUT,QGAM] = [ 11.31, 22.87] = [ 35.82,146.48] Ry 
 Optimized for a Real-space Cutoff    1.00 Angstroem

   l    n(q)    QCUT    max X(q) W(low)/X(q) W(high)/X(q)  e(spline) 
   0      7    11.310   115.676    0.43E-03    0.13E-02    0.19E-06
   0      7    11.310    87.132    0.43E-03    0.13E-02    0.18E-06
   1      6    11.310     4.429    0.42E-03    0.74E-03    0.11E-06
   1      6    11.310     2.733    0.34E-03    0.55E-03    0.92E-07
 Optimization of the real space projectors (new method)

 maximal supplied QI-value         = 24.76
 optimisation between [QCUT,QGAM] = [ 11.39, 22.77] = [ 36.31,145.25] Ry 
 Optimized for a Real-space Cutoff    1.00 Angstroem

   l    n(q)    QCUT    max X(q) W(low)/X(q) W(high)/X(q)  e(spline) 
   0      7    11.387    20.381    0.39E-03    0.13E-02    0.15E-06
   0      7    11.387    15.268    0.42E-03    0.14E-02    0.17E-06
   1      6    11.387     5.964    0.41E-03    0.11E-02    0.17E-06
   1      6    11.387     5.382    0.39E-03    0.87E-03    0.15E-06
 -----------------------------------------------------------------------------
|                                                                             |
|               ----> ADVICE to this user running VASP <----                  |
|                                                                             |
|     You enforced a specific xc type in the INCAR file but a different       |
|     type was found in the POTCAR file.                                      |
|     I HOPE YOU KNOW WHAT YOU ARE DOING!                                     |
|                                                                             |
 -----------------------------------------------------------------------------

  PAW_PBE C 08Apr2002                   :
 energy of atom  1       EATOM= -147.1560
 kinetic energy error for atom=    0.0076 (will be added to EATOM!!)
  PAW_PBE O 08Apr2002                   :
 energy of atom  2       EATOM= -432.3788
 kinetic energy error for atom=    0.0224 (will be added to EATOM!!)
 
 
 POSCAR: C  O
  positions in cartesian coordinates
  No initial velocities read in
 exchange correlation table for  LEXCH =       17
   RHO(1)=    0.500       N(1)  =     2000
   RHO(2)=  100.500       N(2)  =     4000

 VTST: version 4.1, (05/19/21)

 CHAIN: initializing optimizer
 
 OPT: Using VASP Conjugate-Gradient optimizer
 CHAIN: Read ICHAIN            0
 
 POSCAR: C  O
  positions in cartesian coordinates
  No initial velocities read in
 


--------------------------------------------------------------------------------------------------------


 ion  position               nearest neighbor table
   1  0.500  0.500  0.485-   2 1.14
   2  0.500  0.500  0.519-   1 1.14
 
  LATTYP: Found a hexagonal cell.
 ALAT       =    17.3099740034
 C/A-ratio  =     1.9102724989
  
  Lattice vectors:
  
 A1 = (  -8.6549870017, -14.9908772258,   0.0000000000)
 A2 = (  17.3099740034,   0.0000000000,   0.0000000000)
 A3 = (   0.0000000000,   0.0000000000,  33.0667672949)


Analysis of symmetry for initial positions (statically):
=====================================================================
 Subroutine PRICEL returns:
 Original cell was already a primitive cell.
 

 Routine SETGRP: Setting up the symmetry group for a 
 hexagonal supercell.


 Subroutine GETGRP returns: Found 12 space group operations
 (whereof  1 operations were pure point group operations)
 out of a pool of 24 trial point group operations.


The static configuration has the point symmetry C_1 .
 The point group associated with its full space group is C_6v.


Analysis of symmetry for dynamics (positions and initial velocities):
=====================================================================
 Subroutine PRICEL returns:
 Original cell was already a primitive cell.
 

 Routine SETGRP: Setting up the symmetry group for a 
 hexagonal supercell.


 Subroutine GETGRP returns: Found 12 space group operations
 (whereof  1 operations were pure point group operations)
 out of a pool of 24 trial point group operations.


The dynamic configuration has the point symmetry C_1 .
 The point group associated with its full space group is C_6v.


 Subroutine INISYM returns: Found 12 space group operations
 (whereof  1 operations are pure point group operations),
 and found     1 'primitive' translations


----------------------------------------------------------------------------------------

                                     Primitive cell                                     

  volume of cell :    8580.5515

  direct lattice vectors                    reciprocal lattice vectors
    17.309974003  0.000000000  0.000000000     0.057770162 -0.033353619  0.000000000
     8.654987002 14.990877226  0.000000000     0.000000000  0.066707237  0.000000000
     0.000000000  0.000000000 33.066767295     0.000000000  0.000000000  0.030241843

  length of vectors
    17.309974003 17.309974003 33.066767295     0.066707237  0.066707237  0.030241843

  position of ions in fractional coordinates (direct lattice)
     0.500015756  0.499970741  0.484882597
     0.500015756  0.499970741  0.519358299

  ion indices of the primitive-cell ions
   primitive index   ion index
                 1           1
                 2           2

----------------------------------------------------------------------------------------

 
 
 KPOINTS: KPOINTS created by Atomic Simulation Env

Automatic generation of k-mesh.
 Grid dimensions read from file:
 generate k-points for:    1    1    1

 Generating k-lattice:

  Cartesian coordinates                     Fractional coordinates (reciprocal lattice)
     0.057770162 -0.033353619  0.000000000     1.000000000 -0.000000000  0.000000000
     0.000000000  0.066707237  0.000000000     0.000000000  1.000000000  0.000000000
     0.000000000  0.000000000  0.030241843     0.000000000  0.000000000  1.000000000

  Length of vectors
     0.066707237  0.066707237  0.030241843

  Shift w.r.t. Gamma in fractional coordinates (k-lattice)
     0.000000000  0.000000000  0.000000000

 
 Subroutine IBZKPT returns following result:
 ===========================================
 
 Found      1 irreducible k-points:
 
 Following reciprocal coordinates:
            Coordinates               Weight
  0.000000  0.000000  0.000000      1.000000
 
 Following cartesian coordinates:
            Coordinates               Weight
  0.000000  0.000000  0.000000      1.000000
 


--------------------------------------------------------------------------------------------------------




 Dimension of arrays:
   k-points           NKPTS =      1   k-points in BZ     NKDIM =      1   number of bands    NBANDS=     48
   number of dos      NEDOS =    301   number of ions     NIONS =      2
   non local maximal  LDIM  =      4   non local SUM 2l+1 LMDIM =      8
   total plane-waves  NPLWV = ******
   max r-space proj   IRMAX =    924   max aug-charges    IRDMAX=   2875
   dimension x,y,z NGX =    96 NGY =   96 NGZ =  192
   dimension x,y,z NGXF=   192 NGYF=  192 NGZF=  384
   support grid    NGXF=   192 NGYF=  192 NGZF=  384
   ions per type =               1   1
   NGX,Y,Z   is equivalent  to a cutoff of   9.22,  9.22,  9.65 a.u.
   NGXF,Y,Z  is equivalent  to a cutoff of  18.44, 18.44, 19.31 a.u.

 SYSTEM =  unknown system                          
 POSCAR =  C  O                                    

 Startparameter for this run:
   NWRITE =      2    write-flag & timer
   PREC   = normal    normal or accurate (medium, high low for compatibility)
   ISTART =      0    job   : 0-new  1-cont  2-samecut
   ICHARG =      2    charge: 1-file 2-atom 10-const
   ISPIN  =      1    spin polarized calculation?
   LNONCOLLINEAR =      F non collinear calculations
   LSORBIT =      F    spin-orbit coupling
   INIWAV =      1    electr: 0-lowe 1-rand  2-diag
   LASPH  =      F    aspherical Exc in radial PAW
 Electronic Relaxation 1
   ENCUT  =  500.0 eV  36.75 Ry    6.06 a.u.  31.56 31.56 60.29*2*pi/ulx,y,z
   ENINI  =  500.0     initial cutoff
   ENAUG  =  644.9 eV  augmentation charge cutoff
   NELM   =    200;   NELMIN=  2; NELMDL=  0     # of ELM steps 
   EDIFF  = 0.1E-04   stopping-criterion for ELM
   LREAL  =      T    real-space projection
   NLSPLINE    = F    spline interpolate recip. space projectors
   LCOMPAT=      F    compatible to vasp.4.4
   GGA_COMPAT  = T    GGA compatible to vasp.4.4-vasp.4.6
   LMAXPAW     = -100 max onsite density
   LMAXMIX     =    2 max onsite mixed and CHGCAR
   VOSKOWN=      0    Vosko Wilk Nusair interpolation
   ROPT   =   -0.00050  -0.00050
 Ionic relaxation
   EDIFFG = -.2E-01   stopping-criterion for IOM
   NSW    =    500    number of steps for IOM
   NBLOCK =      1;   KBLOCK =    500    inner block; outer block 
   IBRION =      2    ionic relax: 0-MD 1-quasi-New 2-CG
   NFREE  =      1    steps in history (QN), initial steepest desc. (CG)
   ISIF   =      2    stress and relaxation
   IWAVPR =     11    prediction:  0-non 1-charg 2-wave 3-comb
   ISYM   =      2    0-nonsym 1-usesym 2-fastsym
   LCORR  =      T    Harris-Foulkes like correction to forces

   POTIM  = 0.5000    time-step for ionic-motion
   TEIN   =    0.0    initial temperature
   TEBEG  =    0.0;   TEEND  =   0.0 temperature during run
   SMASS  =  -3.00    Nose mass-parameter (am)
   estimated Nose-frequenzy (Omega)   =  0.10E-29 period in steps = 0.13E+47 mass=  -0.685E-26a.u.
   SCALEE = 1.0000    scale energy and forces
   NPACO  =    256;   APACO  = 10.0  distance and # of slots for P.C.
   PSTRESS=    0.0 pullay stress

  Mass of Ions in am
   POMASS =  12.01 16.00
  Ionic Valenz
   ZVAL   =   4.00  6.00
  Atomic Wigner-Seitz radii
   RWIGS  =  -1.00 -1.00
  virtual crystal weights 
   VCA    =   1.00  1.00
   NELECT =      10.0000    total number of electrons
   NUPDOWN=      -1.0000    fix difference up-down

 DOS related values:
   EMIN   =  10.00;   EMAX   =-10.00  energy-range for DOS
   EFERMI =   0.00
   ISMEAR =     0;   SIGMA  =   0.01  broadening in eV -4-tet -1-fermi 0-gaus

 Electronic relaxation 2 (details)
   IALGO  =     58    algorithm
   LDIAG  =      T    sub-space diagonalisation (order eigenvalues)
   LSUBROT=      F    optimize rotation matrix (better conditioning)
   TURBO    =      0    0=normal 1=particle mesh
   IRESTART =      0    0=no restart 2=restart with 2 vectors
   NREBOOT  =      0    no. of reboots
   NMIN     =      0    reboot dimension
   EREF     =   0.00    reference energy to select bands
   IMIX   =      4    mixing-type and parameters
     AMIX     =   0.40;   BMIX     =  1.00
     AMIX_MAG =   1.60;   BMIX_MAG =  1.00
     AMIN     =   0.10
     WC   =   100.;   INIMIX=   1;  MIXPRE=   1;  MAXMIX= -45

 Intra band minimization:
   WEIMIN = 0.0010     energy-eigenvalue tresh-hold
   EBREAK =  0.52E-07  absolut break condition
   DEPER  =   0.30     relativ break condition  

   TIME   =   0.40     timestep for ELM

  volume/ion in A,a.u.               =    4290.28     28952.21
  Fermi-wavevector in a.u.,A,eV,Ry     =   0.172281  0.325563  0.403829  0.029681
  Thomas-Fermi vector in A             =   0.885059
 
 Write flags
   LWAVE        =      F    write WAVECAR
   LDOWNSAMPLE  =      F    k-point downsampling of WAVECAR
   LCHARG       =      F    write CHGCAR
   LVTOT        =      F    write LOCPOT, total local potential
   LVHAR        =      F    write LOCPOT, Hartree potential only
   LELF         =      F    write electronic localiz. function (ELF)
   LORBIT       =      0    0 simple, 1 ext, 2 COOP (PROOUT), +10 PAW based schemes


 Dipole corrections
   LMONO  =      F    monopole corrections only (constant potential shift)
   LDIPOL =      F    correct potential (dipole corrections)
   IDIPOL =      0    1-x, 2-y, 3-z, 4-all directions 
   EPSILON=  1.0000000 bulk dielectric constant

 Exchange correlation treatment:
   GGA     =    BF    GGA type
   LEXCH   =    17    internal setting for exchange type
   LIBXC   =     F    Libxc                    
   VOSKOWN =     0    Vosko Wilk Nusair interpolation
   LHFCALC =     F    Hartree Fock is set to
   LHFONE  =     F    Hartree Fock one center treatment
   AEXX    =    0.0000 exact exchange contribution

 vdW DFT:
   LUSE_VDW   =     T    switch on vdW DFT
   Zab_VDW    =******    correlation parameter
   PARAM1     =0.1234
   PARAM2     =1.0000
   PARAM3     =0.0000
   -- rVV10 --
   BPARAM     = 6.3000
   CPARAM     = 0.0093

 Linear response parameters
   LEPSILON=     F    determine dielectric tensor
   LRPA    =     F    only Hartree local field effects (RPA)
   LNABLA  =     F    use nabla operator in PAW spheres
   LVEL    =     F    velocity operator in full k-point grid
   CSHIFT  =0.1000    complex shift for real part using Kramers Kronig
   OMEGAMAX=  -1.0    maximum frequency
   DEG_THRESHOLD= 0.2000000E-02 threshold for treating states as degnerate
   RTIME   =   -0.100 relaxation time in fs
  (WPLASMAI=    0.000 imaginary part of plasma frequency in eV, 0.658/RTIME)
   DFIELD  = 0.0000000 0.0000000 0.0000000 field for delta impulse in time
 
  Optional k-point grid parameters
   LKPOINTS_OPT  =     F    use optional k-point grid
   KPOINTS_OPT_MODE=     1    mode for optional k-point grid
 
 Orbital magnetization related:
   ORBITALMAG=     F  switch on orbital magnetization
   LCHIMAG   =     F  perturbation theory with respect to B field
   DQ        =  0.001000  dq finite difference perturbation B field
   LLRAUG    =     F  two centre corrections for induced B field



--------------------------------------------------------------------------------------------------------


 conjugate gradient relaxation of ions
 charge density and potential will be updated during run
 non-spin polarized calculation
 Conjugate gradient for all bands (Freysoldt, et al. PRB 79, 241103 (2009))
 preconditioned conjugated gradient                                        
 perform sub-space diagonalisation
    before iterative eigenvector-optimisation
 modified Broyden-mixing scheme, WC =      100.0
 initial mixing is a Kerker type mixing with AMIX =  0.4000 and BMIX =      1.0000
 Hartree-type preconditioning will be used
 using additional bands           43
 real space projection scheme for non local part
 use partial core corrections
 no Harris-corrections to forces 
 use gradient corrections 
 use of overlap-Matrix (Vanderbilt PP)
 Gauss-broadening in eV      SIGMA  =   0.01


--------------------------------------------------------------------------------------------------------


  energy-cutoff  :      500.00
  volume of cell :     8580.55
      direct lattice vectors                 reciprocal lattice vectors
    17.309974003  0.000000000  0.000000000     0.057770162 -0.033353619  0.000000000
     8.654987002 14.990877226  0.000000000     0.000000000  0.066707237  0.000000000
     0.000000000  0.000000000 33.066767295     0.000000000  0.000000000  0.030241843

  length of vectors
    17.309974003 17.309974003 33.066767295     0.066707237  0.066707237  0.030241843


 
 k-points in units of 2pi/SCALE and weight: KPOINTS created by Atomic Simulation Env
   0.00000000  0.00000000  0.00000000       1.000
 
 k-points in reciprocal lattice and weights: KPOINTS created by Atomic Simulation Env
   0.00000000  0.00000000  0.00000000       1.000
 
 position of ions in fractional coordinates (direct lattice) 
   0.50001576  0.49997074  0.48488260
   0.50001576  0.49997074  0.51935830
 
 position of ions in cartesian coordinates  (Angst):
  12.98250000  7.49500000 16.03350000
  12.98250000  7.49500000 17.17350000
 


--------------------------------------------------------------------------------------------------------


 k-point   1 :   0.0000 0.0000 0.0000  plane waves:  217993

 maximum and minimum number of plane-waves per node :    217993   217993

 maximum number of plane-waves:    217993
 maximum index in each direction: 
   IXMAX=   31   IYMAX=   31   IZMAX=   60
   IXMIN=  -31   IYMIN=  -31   IZMIN=  -60


 serial   3D FFT for wavefunctions
 parallel 3D FFT for charge:
    minimum data exchange during FFTs selected (reduces bandwidth)


 total amount of memory used by VASP MPI-rank0   145213. kBytes
=======================================================================

   base      :      30000. kBytes
   nonlr-proj:        148. kBytes
   fftplans  :      17090. kBytes
   grid      :      87502. kBytes
   one-center:          6. kBytes
   wavefun   :      10467. kBytes
 
     INWAV:  cpu time      0.0005: real time      0.0007
 Broyden mixing: mesh for mixing (old mesh)
   NGX = 63   NGY = 63   NGZ =121
  (NGX  =192   NGY  =192   NGZ  =384)
  gives a total of 480249 points

 initial charge density was supplied:
 charge density of overlapping atoms calculated
 number of electron      10.0000000 magnetization 
 charge density for first step will be calculated from the start-wavefunctions


--------------------------------------------------------------------------------------------------------


 Maximum index for non-local projection operator          851
 Maximum index for augmentation-charges          204 (set IRDMAX)


--------------------------------------------------------------------------------------------------------


 First call to EWALD:  gamma=   0.087
 Maximum number of real-space cells 4x 4x 2
 Maximum number of reciprocal cells 2x 2x 4

    FEWALD:  cpu time      0.0096: real time      0.0096


--------------------------------------- Iteration      1(   1)  ---------------------------------------


vdW kernel read from vdw_kernel.bindat
  0.0000  0.2424  0.5071  0.7962  1.1119  1.4567  1.8333  2.2446  2.6937  3.1842
  3.7199  4.3049  4.9438  5.6415  6.4036  7.2358  8.1446  9.1372 10.2212 11.4050
 12.6979 14.1099 15.6519 17.3360 19.1751 21.1837 23.3773 25.7729 28.3892 31.2465
 34.3669 37.7748 41.4965 45.5611 50.0000
 
    POTLOK:  cpu time     15.6897: real time     15.8477
    SETDIJ:  cpu time      0.0103: real time      0.0108
    TRIAL :  cpu time      2.9080: real time      2.9572
    CORREC:  cpu time      0.0005: real time      0.0005
    --------------------------------------------
      LOOP:  cpu time     18.6195: real time     18.8549

 eigenvalue-minimisations  :   144
 total energy-change (2. order) : 0.6502555E+02  (-0.1961375E+03)
 number of electron      10.0000000 magnetization 
 augmentation part       10.0000000 magnetization 

 Free energy of the ion-electron system (eV)
  ---------------------------------------------------
  alpha Z        PSCENC =         0.05092418
  Ewald energy   TEWEN  =       223.83109646
  -Hartree energ DENC   =      -683.07238166
  -exchange      EXHF   =         0.00000000
  -V(xc)+E(xc)   XCENC  =        39.66939863
  PAW double counting   =       455.07029581     -457.86403136
  entropy T*S    EENTRO =        -0.00000000
  eigenvalues    EBANDS =       -99.99560596
  atomic energy  EATOM  =       587.33585529
  ---------------------------------------------------
  free energy    TOTEN  =        65.02555139 eV

  energy without entropy =       65.02555139  energy(sigma->0) =       65.02555139


--------------------------------------------------------------------------------------------------------




--------------------------------------- Iteration      1(   2)  ---------------------------------------


    TRIAL :  cpu time      2.1193: real time      2.1230
    CORREC:  cpu time      0.0004: real time      0.0004
    --------------------------------------------
      LOOP:  cpu time      2.1220: real time      2.1260

 eigenvalue-minimisations  :   144
 total energy-change (2. order) :-0.7446871E+02  (-0.7446871E+02)
 number of electron      10.0000000 magnetization 
 augmentation part       10.0000000 magnetization 

 Free energy of the ion-electron system (eV)
  ---------------------------------------------------
  alpha Z        PSCENC =         0.05092418
  Ewald energy   TEWEN  =       223.83109646
  -Hartree energ DENC   =      -683.07238166
  -exchange      EXHF   =         0.00000000
  -V(xc)+E(xc)   XCENC  =        39.66939863
  PAW double counting   =       455.07029581     -457.86403136
  entropy T*S    EENTRO =        -0.00000000
  eigenvalues    EBANDS =      -174.46431787
  atomic energy  EATOM  =       587.33585529
  ---------------------------------------------------
  free energy    TOTEN  =        -9.44316051 eV

  energy without entropy =       -9.44316051  energy(sigma->0) =       -9.44316051


--------------------------------------------------------------------------------------------------------




--------------------------------------- Iteration      1(   3)  ---------------------------------------


    TRIAL :  cpu time      2.1055: real time      2.1076
    CORREC:  cpu time      0.0002: real time      0.0002
    --------------------------------------------
      LOOP:  cpu time      2.1069: real time      2.1090

 eigenvalue-minimisations  :   144
 total energy-change (2. order) :-0.3603111E+01  (-0.3603111E+01)
 number of electron      10.0000000 magnetization 
 augmentation part       10.0000000 magnetization 

 Free energy of the ion-electron system (eV)
  ---------------------------------------------------
  alpha Z        PSCENC =         0.05092418
  Ewald energy   TEWEN  =       223.83109646
  -Hartree energ DENC   =      -683.07238166
  -exchange      EXHF   =         0.00000000
  -V(xc)+E(xc)   XCENC  =        39.66939863
  PAW double counting   =       455.07029581     -457.86403136
  entropy T*S    EENTRO =        -0.00000000
  eigenvalues    EBANDS =      -178.06742885
  atomic energy  EATOM  =       587.33585529
  ---------------------------------------------------
  free energy    TOTEN  =       -13.04627149 eV

  energy without entropy =      -13.04627149  energy(sigma->0) =      -13.04627149


--------------------------------------------------------------------------------------------------------




--------------------------------------- Iteration      1(   4)  ---------------------------------------


    TRIAL :  cpu time      1.5463: real time      1.5497
    CORREC:  cpu time      0.0002: real time      0.0002
    --------------------------------------------
      LOOP:  cpu time      1.5474: real time      1.5508

 eigenvalue-minimisations  :    96
 total energy-change (2. order) :-0.3898171E-02  (-0.3898171E-02)
 number of electron      10.0000000 magnetization 
 augmentation part       10.0000000 magnetization 

 Free energy of the ion-electron system (eV)
  ---------------------------------------------------
  alpha Z        PSCENC =         0.05092418
  Ewald energy   TEWEN  =       223.83109646
  -Hartree energ DENC   =      -683.07238166
  -exchange      EXHF   =         0.00000000
  -V(xc)+E(xc)   XCENC  =        39.66939863
  PAW double counting   =       455.07029581     -457.86403136
  entropy T*S    EENTRO =        -0.00000000
  eigenvalues    EBANDS =      -178.07132702
  atomic energy  EATOM  =       587.33585529
  ---------------------------------------------------
  free energy    TOTEN  =       -13.05016966 eV

  energy without entropy =      -13.05016966  energy(sigma->0) =      -13.05016966


--------------------------------------------------------------------------------------------------------




--------------------------------------- Iteration      1(   5)  ---------------------------------------


    TRIAL :  cpu time      2.6170: real time      2.6199
    CORREC:  cpu time      0.0003: real time      0.0003
    CHARGE:  cpu time      1.5983: real time      1.6638
    --------------------------------------------
      LOOP:  cpu time      4.2167: real time      4.2852

 eigenvalue-minimisations  :   192
 total energy-change (2. order) :-0.2605466E-04  (-0.2605470E-04)
 number of electron      10.0000014 magnetization 
 augmentation part        0.7488178 magnetization 

 Free energy of the ion-electron system (eV)
  ---------------------------------------------------
  alpha Z        PSCENC =         0.05092418
  Ewald energy   TEWEN  =       223.83109646
  -Hartree energ DENC   =      -683.07238166
  -exchange      EXHF   =         0.00000000
  -V(xc)+E(xc)   XCENC  =        39.66939863
  PAW double counting   =       455.07029581     -457.86403136
  entropy T*S    EENTRO =        -0.00000000
  eigenvalues    EBANDS =      -178.07135307
  atomic energy  EATOM  =       587.33585529
  ---------------------------------------------------
  free energy    TOTEN  =       -13.05019571 eV

  energy without entropy =      -13.05019571  energy(sigma->0) =      -13.05019571


--------------------------------------------------------------------------------------------------------




--------------------------------------- Iteration      1(   6)  ---------------------------------------


    POTLOK:  cpu time     14.3532: real time     14.3679
    SETDIJ:  cpu time      0.0080: real time      0.0080
    TRIAL :  cpu time      1.4330: real time      1.4366
    CORREC:  cpu time     16.8546: real time     16.8748
    CHARGE:  cpu time      1.5059: real time      1.5074
    --------------------------------------------
      LOOP:  cpu time     34.1580: real time     34.1982

 eigenvalue-minimisations  :     0
 total energy-change (2. order) : 0.2407086E+01  (-0.1173479E+01)
 number of electron      10.0000011 magnetization 
 augmentation part        0.6869752 magnetization 

 Free energy of the ion-electron system (eV)
  ---------------------------------------------------
  alpha Z        PSCENC =         0.05092418
  Ewald energy   TEWEN  =       223.83109646
  -Hartree energ DENC   =      -738.15021658
  -exchange      EXHF   =         0.00000000
  -V(xc)+E(xc)   XCENC  =        42.81207115
  PAW double counting   =       880.10165584     -883.30238440
  entropy T*S    EENTRO =        -0.00000000
  eigenvalues    EBANDS =      -123.32211140
  atomic energy  EATOM  =       587.33585529
  ---------------------------------------------------
  free energy    TOTEN  =       -10.64310945 eV

  energy without entropy =      -10.64310945  energy(sigma->0) =      -10.64310945


--------------------------------------------------------------------------------------------------------




--------------------------------------- Iteration      1(   7)  ---------------------------------------


    POTLOK:  cpu time     14.4164: real time     14.4339
    SETDIJ:  cpu time      0.0077: real time      0.0077
    TRIAL :  cpu time      1.4481: real time      1.4512
    CORREC:  cpu time     16.7478: real time     16.7682
    CHARGE:  cpu time      1.5350: real time      1.5366
    --------------------------------------------
      LOOP:  cpu time     34.1569: real time     34.1994

 eigenvalue-minimisations  :     0
 total energy-change (2. order) :-0.1186668E+01  (-0.1536860E+00)
 number of electron      10.0000010 magnetization 
 augmentation part        0.6648962 magnetization 

 Free energy of the ion-electron system (eV)
  ---------------------------------------------------
  alpha Z        PSCENC =         0.05092418
  Ewald energy   TEWEN  =       223.83109646
  -Hartree energ DENC   =      -710.55970688
  -exchange      EXHF   =         0.00000000
  -V(xc)+E(xc)   XCENC  =        41.26292409
  PAW double counting   =       859.15271457     -862.11985963
  entropy T*S    EENTRO =        -0.00000000
  eigenvalues    EBANDS =      -150.78372513
  atomic energy  EATOM  =       587.33585529
  ---------------------------------------------------
  free energy    TOTEN  =       -11.82977706 eV

  energy without entropy =      -11.82977706  energy(sigma->0) =      -11.82977706


--------------------------------------------------------------------------------------------------------




--------------------------------------- Iteration      1(   8)  ---------------------------------------


    POTLOK:  cpu time     14.3432: real time     14.3631
    SETDIJ:  cpu time      0.0078: real time      0.0078
    TRIAL :  cpu time      1.3947: real time      1.3972
    CORREC:  cpu time     16.7863: real time     16.8066
    CHARGE:  cpu time      1.4867: real time      1.4885
    --------------------------------------------
      LOOP:  cpu time     34.0242: real time     34.0685

 eigenvalue-minimisations  :     0
 total energy-change (2. order) :-0.1536467E+00  (-0.5570891E-01)
 number of electron      10.0000010 magnetization 
 augmentation part        0.6611004 magnetization 

 Free energy of the ion-electron system (eV)
  ---------------------------------------------------
  alpha Z        PSCENC =         0.05092418
  Ewald energy   TEWEN  =       223.83109646
  -Hartree energ DENC   =      -708.41955044
  -exchange      EXHF   =         0.00000000
  -V(xc)+E(xc)   XCENC  =        41.15095767
  PAW double counting   =       868.53533626     -871.35962159
  entropy T*S    EENTRO =        -0.00000000
  eigenvalues    EBANDS =      -153.10842164
  atomic energy  EATOM  =       587.33585529
  ---------------------------------------------------
  free energy    TOTEN  =       -11.98342381 eV

  energy without entropy =      -11.98342381  energy(sigma->0) =      -11.98342381


--------------------------------------------------------------------------------------------------------




--------------------------------------- Iteration      1(   9)  ---------------------------------------


    POTLOK:  cpu time     14.4599: real time     14.4762
    SETDIJ:  cpu time      0.0076: real time      0.0076
    TRIAL :  cpu time      1.3957: real time      1.3984
    CORREC:  cpu time     16.7633: real time     16.7842
    CHARGE:  cpu time      1.5088: real time      1.5108
    --------------------------------------------
      LOOP:  cpu time     34.1378: real time     34.1797

 eigenvalue-minimisations  :     0
 total energy-change (2. order) :-0.5569458E-01  (-0.1626203E-01)
 number of electron      10.0000010 magnetization 
 augmentation part        0.6617125 magnetization 

 Free energy of the ion-electron system (eV)
  ---------------------------------------------------
  alpha Z        PSCENC =         0.05092418
  Ewald energy   TEWEN  =       223.83109646
  -Hartree energ DENC   =      -707.89416752
  -exchange      EXHF   =         0.00000000
  -V(xc)+E(xc)   XCENC  =        41.13212276
  PAW double counting   =       876.81997356     -879.60994445
  entropy T*S    EENTRO =        -0.00000000
  eigenvalues    EBANDS =      -153.70497866
  atomic energy  EATOM  =       587.33585529
  ---------------------------------------------------
  free energy    TOTEN  =       -12.03911839 eV

  energy without entropy =      -12.03911839  energy(sigma->0) =      -12.03911839


--------------------------------------------------------------------------------------------------------




--------------------------------------- Iteration      1(  10)  ---------------------------------------


    POTLOK:  cpu time     14.4318: real time     14.4477
    SETDIJ:  cpu time      0.0081: real time      0.0081
    TRIAL :  cpu time      1.3936: real time      1.3965
    CORREC:  cpu time     16.7555: real time     16.7754
    CHARGE:  cpu time      1.5003: real time      1.5019
    --------------------------------------------
      LOOP:  cpu time     34.0910: real time     34.1312

 eigenvalue-minimisations  :     0
 total energy-change (2. order) :-0.1623943E-01  (-0.6956488E-02)
 number of electron      10.0000010 magnetization 
 augmentation part        0.6616292 magnetization 

 Free energy of the ion-electron system (eV)
  ---------------------------------------------------
  alpha Z        PSCENC =         0.05092418
  Ewald energy   TEWEN  =       223.83109646
  -Hartree energ DENC   =      -707.35033488
  -exchange      EXHF   =         0.00000000
  -V(xc)+E(xc)   XCENC  =        41.10883900
  PAW double counting   =       880.45085662     -883.24110895
  entropy T*S    EENTRO =        -0.00000000
  eigenvalues    EBANDS =      -154.24148554
  atomic energy  EATOM  =       587.33585529
  ---------------------------------------------------
  free energy    TOTEN  =       -12.05535782 eV

  energy without entropy =      -12.05535782  energy(sigma->0) =      -12.05535782


--------------------------------------------------------------------------------------------------------




--------------------------------------- Iteration      1(  11)  ---------------------------------------


    POTLOK:  cpu time     14.5743: real time     14.5906
    SETDIJ:  cpu time      0.0082: real time      0.0082
    TRIAL :  cpu time      1.1390: real time      1.1419
    CORREC:  cpu time     16.3907: real time     16.4248
    CHARGE:  cpu time      1.4860: real time      1.4877
    --------------------------------------------
      LOOP:  cpu time     33.6009: real time     33.6560

 eigenvalue-minimisations  :     0
 total energy-change (2. order) :-0.6942471E-02  (-0.2757874E-02)
 number of electron      10.0000010 magnetization 
 augmentation part        0.6617192 magnetization 

 Free energy of the ion-electron system (eV)
  ---------------------------------------------------
  alpha Z        PSCENC =         0.05092418
  Ewald energy   TEWEN  =       223.83109646
  -Hartree energ DENC   =      -707.01599499
  -exchange      EXHF   =         0.00000000
  -V(xc)+E(xc)   XCENC  =        41.09289253
  PAW double counting   =       881.86330658     -884.65199544
  entropy T*S    EENTRO =        -0.00000000
  eigenvalues    EBANDS =      -154.56838489
  atomic energy  EATOM  =       587.33585529
  ---------------------------------------------------
  free energy    TOTEN  =       -12.06230029 eV

  energy without entropy =      -12.06230029  energy(sigma->0) =      -12.06230029


--------------------------------------------------------------------------------------------------------




--------------------------------------- Iteration      1(  12)  ---------------------------------------


    POTLOK:  cpu time     14.0447: real time     14.0625
    SETDIJ:  cpu time      0.0077: real time      0.0077
    TRIAL :  cpu time      1.3972: real time      1.3996
    CORREC:  cpu time     16.5865: real time     16.6057
    CHARGE:  cpu time      1.5026: real time      1.5033
    --------------------------------------------
      LOOP:  cpu time     33.5415: real time     33.5818

 eigenvalue-minimisations  :     0
 total energy-change (2. order) :-0.2752852E-02  (-0.8692024E-03)
 number of electron      10.0000010 magnetization 
 augmentation part        0.6618398 magnetization 

 Free energy of the ion-electron system (eV)
  ---------------------------------------------------
  alpha Z        PSCENC =         0.05092418
  Ewald energy   TEWEN  =       223.83109646
  -Hartree energ DENC   =      -706.78187828
  -exchange      EXHF   =         0.00000000
  -V(xc)+E(xc)   XCENC  =        41.07822080
  PAW double counting   =       881.63443431     -884.42509026
  entropy T*S    EENTRO =        -0.00000000
  eigenvalues    EBANDS =      -154.78861564
  atomic energy  EATOM  =       587.33585529
  ---------------------------------------------------
  free energy    TOTEN  =       -12.06505314 eV

  energy without entropy =      -12.06505314  energy(sigma->0) =      -12.06505314


--------------------------------------------------------------------------------------------------------




--------------------------------------- Iteration      1(  13)  ---------------------------------------


    POTLOK:  cpu time     14.2354: real time     14.2523
    SETDIJ:  cpu time      0.0077: real time      0.0077
    TRIAL :  cpu time      1.4033: real time      1.4070
    CORREC:  cpu time     16.4396: real time     16.4602
    CHARGE:  cpu time      1.5068: real time      1.5083
    --------------------------------------------
      LOOP:  cpu time     33.5945: real time     33.6373

 eigenvalue-minimisations  :     0
 total energy-change (2. order) :-0.8686795E-03  (-0.2241361E-03)
 number of electron      10.0000010 magnetization 
 augmentation part        0.6618099 magnetization 

 Free energy of the ion-electron system (eV)
  ---------------------------------------------------
  alpha Z        PSCENC =         0.05092418
  Ewald energy   TEWEN  =       223.83109646
  -Hartree energ DENC   =      -706.66007259
  -exchange      EXHF   =         0.00000000
  -V(xc)+E(xc)   XCENC  =        41.06952050
  PAW double counting   =       880.89152622     -883.68461092
  entropy T*S    EENTRO =        -0.00000000
  eigenvalues    EBANDS =      -154.90016096
  atomic energy  EATOM  =       587.33585529
  ---------------------------------------------------
  free energy    TOTEN  =       -12.06592182 eV

  energy without entropy =      -12.06592182  energy(sigma->0) =      -12.06592182


--------------------------------------------------------------------------------------------------------




--------------------------------------- Iteration      1(  14)  ---------------------------------------


    POTLOK:  cpu time     14.1737: real time     14.1905
    SETDIJ:  cpu time      0.0099: real time      0.0099
    TRIAL :  cpu time      1.3984: real time      1.4019
    CORREC:  cpu time     16.5653: real time     16.5855
    CHARGE:  cpu time      1.5050: real time      1.5059
    --------------------------------------------
      LOOP:  cpu time     33.6586: real time     33.7000

 eigenvalue-minimisations  :     0
 total energy-change (2. order) :-0.2240732E-03  (-0.5521460E-04)
 number of electron      10.0000010 magnetization 
 augmentation part        0.6617601 magnetization 

 Free energy of the ion-electron system (eV)
  ---------------------------------------------------
  alpha Z        PSCENC =         0.05092418
  Ewald energy   TEWEN  =       223.83109646
  -Hartree energ DENC   =      -706.62509957
  -exchange      EXHF   =         0.00000000
  -V(xc)+E(xc)   XCENC  =        41.06695552
  PAW double counting   =       880.24835834     -883.04218475
  entropy T*S    EENTRO =        -0.00000000
  eigenvalues    EBANDS =      -154.93205136
  atomic energy  EATOM  =       587.33585529
  ---------------------------------------------------
  free energy    TOTEN  =       -12.06614589 eV

  energy without entropy =      -12.06614589  energy(sigma->0) =      -12.06614589


--------------------------------------------------------------------------------------------------------




--------------------------------------- Iteration      1(  15)  ---------------------------------------


    POTLOK:  cpu time     14.0569: real time     14.0744
    SETDIJ:  cpu time      0.0077: real time      0.0077
    TRIAL :  cpu time      1.3940: real time      1.3975
    CORREC:  cpu time     16.6266: real time     16.6449
    CHARGE:  cpu time      1.4946: real time      1.4961
    --------------------------------------------
      LOOP:  cpu time     33.5827: real time     33.6235

 eigenvalue-minimisations  :     0
 total energy-change (2. order) :-0.5510123E-04  (-0.1298206E-04)
 number of electron      10.0000010 magnetization 
 augmentation part        0.6617218 magnetization 

 Free energy of the ion-electron system (eV)
  ---------------------------------------------------
  alpha Z        PSCENC =         0.05092418
  Ewald energy   TEWEN  =       223.83109646
  -Hartree energ DENC   =      -706.62828279
  -exchange      EXHF   =         0.00000000
  -V(xc)+E(xc)   XCENC  =        41.06706311
  PAW double counting   =       879.82225307     -882.61611542
  entropy T*S    EENTRO =        -0.00000000
  eigenvalues    EBANDS =      -154.92899490
  atomic energy  EATOM  =       587.33585529
  ---------------------------------------------------
  free energy    TOTEN  =       -12.06620099 eV

  energy without entropy =      -12.06620099  energy(sigma->0) =      -12.06620099


--------------------------------------------------------------------------------------------------------




--------------------------------------- Iteration      1(  16)  ---------------------------------------


    POTLOK:  cpu time     14.1396: real time     14.1545
    SETDIJ:  cpu time      0.0075: real time      0.0075
    TRIAL :  cpu time      1.3947: real time      1.3979
    CORREC:  cpu time     16.3737: real time     16.3931
    CHARGE:  cpu time      1.4897: real time      1.4913
    --------------------------------------------
      LOOP:  cpu time     33.4072: real time     33.4463

 eigenvalue-minimisations  :     0
 total energy-change (2. order) :-0.1292769E-04  (-0.3681550E-05)
 number of electron      10.0000010 magnetization 
 augmentation part        0.6617189 magnetization 

 Free energy of the ion-electron system (eV)
  ---------------------------------------------------
  alpha Z        PSCENC =         0.05092418
  Ewald energy   TEWEN  =       223.83109646
  -Hartree energ DENC   =      -706.62992230
  -exchange      EXHF   =         0.00000000
  -V(xc)+E(xc)   XCENC  =        41.06714389
  PAW double counting   =       879.57074211     -882.36452184
  entropy T*S    EENTRO =        -0.00000000
  eigenvalues    EBANDS =      -154.92753172
  atomic energy  EATOM  =       587.33585529
  ---------------------------------------------------
  free energy    TOTEN  =       -12.06621392 eV

  energy without entropy =      -12.06621392  energy(sigma->0) =      -12.06621392


--------------------------------------------------------------------------------------------------------




--------------------------------------- Iteration      1(  17)  ---------------------------------------


    POTLOK:  cpu time     14.1142: real time     14.1308
    SETDIJ:  cpu time      0.0078: real time      0.0078
    TRIAL :  cpu time      1.3942: real time      1.3968
    CORREC:  cpu time     16.5986: real time     16.6179
    EDDIAG:  cpu time      0.4298: real time      0.4348
    CHARGE:  cpu time      1.6033: real time      1.6050
    --------------------------------------------
      LOOP:  cpu time     34.1505: real time     34.1957

 eigenvalue-minimisations  :     0
 total energy-change (2. order) :-0.3680581E-05  (-0.1174886E-05)
 number of electron      10.0000010 magnetization 
 augmentation part        0.6617263 magnetization 

 Free energy of the ion-electron system (eV)
  ---------------------------------------------------
  alpha Z        PSCENC =         0.05092418
  Ewald energy   TEWEN  =       223.83109646
  -Hartree energ DENC   =      -706.63455027
  -exchange      EXHF   =         0.00000000
  -V(xc)+E(xc)   XCENC  =        41.06737891
  PAW double counting   =       879.42736162     -882.22114368
  entropy T*S    EENTRO =        -0.00000000
  eigenvalues    EBANDS =      -154.92314012
  atomic energy  EATOM  =       587.33585529
  ---------------------------------------------------
  free energy    TOTEN  =       -12.06621760 eV

  energy without entropy =      -12.06621760  energy(sigma->0) =      -12.06621760


--------------------------------------------------------------------------------------------------------


  average scaling for gradient   1.8563


 average (electrostatic) potential at core
  the test charge radii are     0.6991  0.7215
  (the norm of the test charge is              1.0000)
       1 -62.1242       2 -84.0593
 
 
 
 E-fermi :  -9.3580     XC(G=0):  -0.1140     alpha+bet : -0.0204

 Fermi energy:        -9.3579962682

 k-point     1 :       0.0000    0.0000    0.0000
  band No.  band energies     occupation 
      1     -29.6899      2.00000
      2     -14.3773      2.00000
      3     -11.9924      2.00000
      4     -11.9922      2.00000
      5      -9.4088      2.00000
      6      -2.3810      0.00000
      7      -2.3809      0.00000
      8      -0.3501      0.00000
      9       0.0458      0.00000
     10       0.0831      0.00000
     11       0.2840      0.00000
     12       0.3953      0.00000
     13       0.3973      0.00000
     14       0.3996      0.00000
     15       0.5420      0.00000
     16       0.6249      0.00000
     17       0.6361      0.00000
     18       0.6624      0.00000
     19       0.6655      0.00000
     20       0.7214      0.00000
     21       0.7252      0.00000
     22       0.7325      0.00000
     23       0.7672      0.00000
     24       0.7750      0.00000
     25       0.7752      0.00000
     26       0.7848      0.00000
     27       0.7901      0.00000
     28       0.7989      0.00000
     29       0.8010      0.00000
     30       0.8068      0.00000
     31       0.9402      0.00000
     32       1.0616      0.00000
     33       1.1041      0.00000
     34       1.1119      0.00000
     35       1.1564      0.00000
     36       1.1645      0.00000
     37       1.1796      0.00000
     38       1.1884      0.00000
     39       1.1968      0.00000
     40       1.2022      0.00000
     41       1.2072      0.00000
     42       1.2128      0.00000
     43       1.2152      0.00000
     44       1.2171      0.00000
     45       1.6136      0.00000
     46       1.6390      0.00000
     47       1.6436      0.00000
     48       1.7155      0.00000


--------------------------------------------------------------------------------------------------------


 soft charge-density along one line, spin component           1
         0         1         2         3         4         5         6         7         8         9
 total charge-density along one line
 
 pseudopotential strength for first ion, spin component:           1
 10.461  13.917  -0.000   0.024   0.000   0.000  -0.077  -0.000
 13.917  18.515  -0.000   0.031   0.000   0.000  -0.102  -0.000
 -0.000  -0.000  -4.432  -0.000  -0.000   8.671   0.000   0.000
  0.024   0.031  -0.000  -4.450   0.000   0.000   8.692  -0.000
  0.000   0.000  -0.000   0.000  -4.432   0.000  -0.000   8.671
  0.000   0.000   8.671   0.000   0.000 -19.111  -0.000  -0.000
 -0.077  -0.102   0.000   8.692  -0.000  -0.000 -19.123   0.000
 -0.000  -0.000   0.000  -0.000   8.671  -0.000   0.000 -19.111
 total augmentation occupancy for first ion, spin component:           1
  8.265  -3.818  -0.000   2.146   0.000   0.000   0.401   0.000
 -3.818   2.133   0.000  -1.643   0.000  -0.000  -0.245   0.000
 -0.000   0.000   0.824   0.000   0.000   0.062  -0.000   0.000
  2.146  -1.643  -0.000   2.250   0.000   0.000   0.214   0.000
  0.000   0.000   0.000   0.000   0.824   0.000  -0.000   0.062
  0.000  -0.000   0.062   0.000   0.000   0.005   0.000   0.000
  0.401  -0.245  -0.000   0.214  -0.000   0.000   0.029   0.000
  0.000   0.000   0.000   0.000   0.062   0.000   0.000   0.005


------------------------ aborting loop because EDIFF is reached ----------------------------------------


    FORLOC:  cpu time      0.0185: real time      0.0185
    FORNL :  cpu time      0.7884: real time      0.7894
    STRESS:  cpu time      1.2744: real time      1.2757
    FORCOR:  cpu time     14.2787: real time     14.2958
    OFIELD:  cpu time      0.0048: real time      0.0048

  FORCE on cell =-STRESS in cart. coord.  units (eV):
  Direction    XX          YY          ZZ          XY          YZ          ZX
  --------------------------------------------------------------------------------------
  Alpha Z     0.05092     0.05092     0.05092
  Ewald       8.06286     8.06286   207.70535     0.00000    -0.00000    -0.00000
  Hartree   234.08069   234.08069   238.47622    -0.00000    -0.00000     0.00000
  E(xc)     -46.52065   -46.52073   -44.58987     0.00007    -0.00000    -0.00000
  Local    -376.17466  -376.17495  -554.30306     0.00025    -0.00001    -0.00001
  n-local   -17.78471   -17.78507   -28.92433     0.00031    -0.00013    -0.00007
  augment     6.26354     6.26354     5.70938     0.00000     0.00001    -0.00000
  Kinetic   191.97855   191.97840   176.05551     0.00013    -0.00002    -0.00004
  Fock        0.00000     0.00000     0.00000     0.00000     0.00000     0.00000
  -------------------------------------------------------------------------------------
  Total      -0.04389    -0.04389     0.18013     0.00000    -0.00000     0.00000
  in kB      -0.00820    -0.00820     0.03363     0.00000    -0.00000     0.00000
  external pressure =        0.01 kB  Pullay stress =        0.00 kB


 VOLUME and BASIS-vectors are now :
 -----------------------------------------------------------------------------
  energy-cutoff  :      500.00
  volume of cell :     8580.55
      direct lattice vectors                 reciprocal lattice vectors
    17.309974003  0.000000000  0.000000000     0.057770162 -0.033353619  0.000000000
     8.654987002 14.990877226  0.000000000     0.000000000  0.066707237  0.000000000
     0.000000000  0.000000000 33.066767295     0.000000000  0.000000000  0.030241843

  length of vectors
    17.309974003 17.309974003 33.066767295     0.066707237  0.066707237  0.030241843


 FORCES acting on ions:
    Electron-Ion                     Ewald-Force                    Non-Local-Force
 -----------------------------------------------------------------------------------------------
   -.198E-04 -.115E-04 0.238E+03   0.701E-16 0.554E-16 -.266E+03   -.567E-19 -.307E-19 0.281E+02
   0.623E-05 -.152E-05 -.206E+03   -.606E-16 -.397E-16 0.266E+03   -.181E-19 0.161E-19 -.599E+02
 -----------------------------------------------------------------------------------------------
   -.145E-04 -.135E-04 0.317E+02   0.949E-17 0.157E-16 0.000E+00   -.748E-19 -.146E-19 -.318E+02
 
 
 POSITION                                       TOTAL-FORCE (eV/Angst)
 -----------------------------------------------------------------------------------
     12.98250      7.49500     16.03350         0.000000      0.000000     -0.186058
     12.98250      7.49500     17.17350        -0.000000     -0.000000      0.186058
 -----------------------------------------------------------------------------------
    total drift:                               -0.000014     -0.000013     -0.097813


--------------------------------------------------------------------------------------------------------



  FREE ENERGIE OF THE ION-ELECTRON SYSTEM (eV)
  ---------------------------------------------------
  free  energy   TOTEN  =       -12.06621760 eV

  energy  without entropy=      -12.06621760  energy(sigma->0) =      -12.06621760
 


--------------------------------------------------------------------------------------------------------


 BEEFens 2000 ensemble energies
             -0.103755969900029E+02
             -0.257501210270739E+00
             -0.227246592800844E+01
              0.726075171723338E+01
             -0.360296277064038E+01
             -0.283722048271405E+01
             -0.723673920704053E+01
             -0.156657730710186E+02
             -0.644272730155678E+01
             -0.698389660120982E+01
             -0.572011323420929E+01
              0.465664329334906E+00
              0.357007698485035E+00
              0.130900909462461E+00
              0.562237526806822E+00
              0.777683372899118E+01
             -0.360405788205878E+01
             -0.246504207603831E+01
              0.361560230303667E+01
             -0.184055862019450E+02
              0.906502470415352E+01
             -0.369592255231326E+01
             -0.102947868434174E+01
             -0.170766271085665E+01
             -0.172187523283455E+00
             -0.107660483159441E+01
              0.148650471286220E+02
             -0.298380299372674E+01
             -0.142644071534377E+01
             -0.888896007132146E+01
              0.124215873087059E+02
             -0.163987351896582E+01
             -0.680448287819515E+01
              0.337438509178225E+01
             -0.488824423892126E+00
              0.396667339776245E+01
             -0.218356772664926E+00
              0.559714447164055E+00
              0.547316668978031E+01
             -0.170040940076616E+02
              0.924597389452014E+01
              0.185845821201129E+01
             -0.127945056184774E+01
             -0.517095825135961E+01
              0.203350251109062E+01
             -0.250877387638624E+01
              0.791793502958960E+01
              0.597608379932686E+01
             -0.398966394504976E+01
             -0.506144682116572E+01
             -0.500299522398376E+01
             -0.603186941105287E+01
              0.312377416913512E+01
             -0.860639342403387E+01
              0.234808866498483E+01
              0.995604427042102E+01
              0.115779302408555E+02
              0.554256082795310E+01
              0.296345480672962E+01
              0.493159222320884E+01
              0.150887885274497E+02
              0.339342108471951E+01
             -0.923249344531260E+01
             -0.204880387282113E+01
             -0.468995639036267E+01
              0.104144258021752E+02
             -0.126235405580185E+02
             -0.101899203771777E+02
             -0.503536740945688E+01
             -0.213067428129760E+01
             -0.702452433598978E+01
              0.459452452978891E+01
              0.220452350378848E+01
              0.220442350274894E+01
             -0.647777482984822E+01
             -0.582073194153139E+01
             -0.927896505640510E+01
              0.591135335635231E+01
             -0.529117221649259E+01
              0.491488622880291E+01
             -0.115347070331829E+01
             -0.513445988956553E+01
             -0.901155047137977E+01
             -0.262355940014996E+01
             -0.250652434962542E+01
             -0.254660958408902E+01
              0.661860306768327E+01
              0.120849983957655E+02
             -0.701313579439521E+01
             -0.132425968940907E+02
             -0.323447681971654E+01
              0.184257059998676E+02
             -0.931915803773039E+01
              0.533069720370628E+01
             -0.154612591394603E+01
             -0.104361999436426E+02
              0.462854515053159E+01
              0.561361464103190E+01
             -0.246909924286923E+01
              0.523253572296676E+01
             -0.460899007849065E+01
             -0.915316480591670E+01
              0.158345915703325E+02
              0.741723956210834E+01
              0.430870258940931E+01
              0.193769618312527E+01
              0.315490771558308E+01
              0.137200418515364E+02
             -0.448013182667395E+01
              0.591974051385405E+00
             -0.233315887518907E+02
              0.338179803065094E+01
             -0.113278782262461E+02
              0.213887073733896E+01
              0.346134447890682E+01
             -0.570459786879039E+01
             -0.873048257271348E+01
              0.785208958631500E+00
             -0.503963121581469E+01
              0.660450545084603E+01
             -0.760267539977630E+01
             -0.880698307112752E+00
             -0.628565663300033E+01
             -0.420402533611977E+00
              0.232558036959933E+00
              0.312686613749450E+01
              0.828303465748377E-01
             -0.121096563413764E+01
              0.104907987498933E+02
              0.151522713754491E+02
              0.806350633731133E+01
              0.119468536980982E+02
             -0.232061397535205E+01
              0.155168017532743E+01
              0.868011250718686E+01
             -0.197811753110066E+00
             -0.125120492705452E+02
             -0.696027158581868E+01
             -0.820516185036596E+01
             -0.491478864021253E+01
              0.445514664383253E+01
             -0.198618860981014E+02
             -0.225139469941431E+01
              0.725813844670706E+01
             -0.681672850035762E+01
             -0.543280588791117E+01
              0.892135327191370E+01
              0.792628875471050E+01
             -0.500986164722687E+01
              0.422008368711704E+01
             -0.423543763219696E+01
              0.625981025337207E+01
              0.129431235890495E+01
              0.241438121493214E+01
             -0.140050432320086E+02
             -0.804061997576733E+01
             -0.160088298068959E+01
             -0.402801329528781E+00
             -0.666787464838171E+01
              0.181250799987119E+02
             -0.246824008592641E+01
             -0.505438077386688E+01
              0.669267021116892E+01
             -0.769219553365796E+01
             -0.599180878287719E+01
              0.513875266266868E+01
              0.179043746034600E+01
              0.172871859584639E+01
              0.214449585384954E+01
             -0.187610282422946E+01
              0.230128615445915E+01
              0.978290956185594E+01
             -0.485291881694453E+01
              0.329706016789593E+01
              0.149138911786385E+02
              0.521401032060517E+01
             -0.717465975243414E+00
             -0.307204928178159E+01
              0.253359566651334E+02
             -0.365407038792927E+01
              0.636200138691572E+01
              0.448006714446900E+01
              0.524424613977298E+01
              0.154245695423788E+02
              0.795194916834085E+01
             -0.729339405669210E+00
              0.375011455807812E+01
              0.836949015211309E+01
              0.625234131246795E+01
             -0.970911168317149E+01
              0.156216321236260E+02
             -0.143412931483172E+02
             -0.241938043662280E+01
              0.946477231760813E+01
              0.183011288656695E+01
              0.729768663731790E+00
              0.508399615755273E+01
              0.322427039697548E+01
              0.546955614657813E+01
             -0.103580095596663E+02
              0.613094161259511E+00
             -0.409476708327048E+01
             -0.106504270653211E+01
             -0.186856892339677E+00
             -0.183854727758927E+01
             -0.939191043180401E+00
              0.139880164788322E+02
             -0.933627789888309E+00
             -0.490162358696274E+01
             -0.424473637203776E+00
              0.227638877828817E+01
             -0.101862353616058E+02
             -0.805037919947295E+01
             -0.568724364255025E+01
             -0.103616629034812E+02
             -0.297100604196862E+01
             -0.686149738693938E+01
              0.295716221099138E+01
             -0.821300832710676E-01
             -0.200214242080271E+01
             -0.143801211524649E+01
              0.107776838890069E+01
             -0.337380029027209E+01
              0.107507747062098E+02
             -0.140326112537161E+02
             -0.204789261113427E+01
             -0.263705140675703E+01
              0.283034725861233E+01
              0.316610002501753E+01
             -0.822004993650893E+01
             -0.241857672155886E+01
              0.741646393376233E+01
             -0.390767452211500E+01
              0.228242978725918E+01
              0.606747373049319E+01
             -0.106288616215991E+00
              0.191069505205756E+02
             -0.259448725334700E+01
             -0.601533152536686E+01
              0.259969962865867E+00
             -0.453453179410359E+01
              0.856413109321213E+01
             -0.725964485477516E+01
              0.218793604806112E+01
              0.883616620785398E+01
             -0.230037320652875E+01
              0.195847835289823E+02
              0.209215411978795E+02
             -0.117521138728426E+02
              0.948798355824449E+01
              0.331377984050688E+01
             -0.894789616734664E+01
              0.341057983937976E+01
              0.651927622514337E+01
              0.707426702043401E+01
              0.733441836438921E+00
              0.287713141197023E+01
              0.119813723645460E+02
             -0.385236143927495E+01
              0.182677570140641E+01
              0.114598348667476E+02
             -0.599574301397447E+01
             -0.329451083830984E+01
              0.935411724277350E+01
              0.507626697496783E+01
              0.128474948208865E+02
              0.502279295636503E+01
              0.183606973310761E+01
              0.411226384662779E+01
              0.691321121000643E+01
             -0.802572944279468E+01
              0.790094890252902E+00
              0.346238715562867E+01
              0.152755812070983E+01
              0.385591536554442E+01
             -0.101090614589008E+02
              0.568033236728637E+01
             -0.722307724296793E+01
             -0.523567923789827E+01
              0.287070430400546E+01
             -0.207902227599083E+01
              0.953213851991194E+01
             -0.337595120675203E+01
              0.452366257193206E+01
              0.514990028971035E+01
              0.131376096122097E+02
              0.896263134448104E+01
              0.841820554640465E+01
             -0.134412979111723E+01
             -0.135183535978056E+01
             -0.511889559457003E+01
              0.131387554834751E+02
              0.135918062115808E+02
              0.615756222121680E+01
             -0.418493461557958E+01
              0.828589533148724E+01
             -0.100160039774166E+01
              0.339179538745177E+01
              0.110831972942200E+02
             -0.351378239584641E+00
             -0.183594300870436E+01
             -0.427205376109985E+01
             -0.946240267238993E+01
              0.159327111575548E+02
              0.774351137725793E+01
             -0.102162402310358E+02
             -0.295839433787653E+01
              0.414297245309020E+01
             -0.200974724117455E+01
              0.104299383255961E+02
              0.269368063772125E+01
              0.132485912536970E+02
              0.445452473979442E+01
             -0.420408315349349E+01
              0.339673202034140E+01
             -0.104463800393787E+01
             -0.458314207443247E+01
              0.275606365735843E+01
              0.322952537066521E+01
              0.147768233834710E+02
              0.126722375316143E+02
              0.932943255509142E+01
              0.117749739562828E+02
              0.125353646921187E+01
             -0.455929427322387E+01
              0.225680441470684E+01
             -0.574902545789091E+01
             -0.876706264777141E+01
             -0.949589888570763E+01
             -0.498479273224915E+01
             -0.181196253124362E+02
             -0.562559912633085E+01
             -0.140844884061715E+02
              0.310660484345463E+01
             -0.767665663886320E+01
              0.774754465899244E+01
             -0.157417207797532E+02
             -0.507136636701741E+01
              0.752039710960965E+01
              0.357361468656406E+01
             -0.143704847396217E+02
              0.939561528556020E+01
             -0.461296453932173E+01
              0.895557220200623E+01
             -0.476212484688362E+01
             -0.126571192750426E+02
              0.271012375909514E+01
             -0.104758874221718E+02
             -0.150644168994263E+01
             -0.641220954196808E-01
              0.705722883715631E+01
              0.207981737719128E+02
             -0.742829896058097E+01
             -0.622071106840985E+01
             -0.902955130781649E+00
             -0.164527092595423E+01
             -0.132672953700238E+02
             -0.974579582804036E+01
              0.868244719890094E+01
             -0.359866444977655E+01
              0.312320409787013E+01
             -0.809455817439628E+01
             -0.224767457160689E+01
             -0.706703131281226E+01
              0.828291542775353E+01
              0.261048445052856E+01
             -0.406029678741595E+01
             -0.240481535470508E+01
              0.180982398224579E+01
             -0.130475298289964E+01
              0.662458270465476E+01
             -0.442478946972491E+01
              0.115553960276809E+01
              0.544462061640038E+01
              0.246800643695472E+01
             -0.341410686241254E+01
              0.258432748993202E+02
              0.936118517661191E+01
              0.122324279640712E+01
              0.140582988580204E+01
             -0.100101209489086E+02
              0.528567367641016E+01
             -0.123577078519877E+02
             -0.517598556958477E+01
             -0.969077595666072E+01
             -0.307835314183826E+01
              0.966208892832563E+01
             -0.944642677236232E+01
              0.356105086002484E+01
             -0.658426219813379E+00
              0.386062912181934E+00
             -0.577303425843964E+01
             -0.711597028095855E+01
             -0.827155747108833E+00
             -0.634679994593514E+01
             -0.385117805375391E+01
             -0.651770899722754E+01
             -0.112820442241937E+01
             -0.538206721820197E+01
             -0.819438146929934E+01
              0.388841070330839E+01
             -0.255931620413386E+01
              0.350919835747650E+01
              0.171028780456253E+01
             -0.122353626567475E+02
             -0.876546446340540E+01
             -0.761360531112868E+01
              0.567045064822068E+01
             -0.579445662215818E+00
             -0.103789024365488E+02
              0.940493120503024E+01
             -0.708562315656055E+01
              0.915702900680056E+01
             -0.491664324644994E+01
             -0.796719661560289E+01
              0.452400347796872E+01
             -0.117361236406861E+02
             -0.572588442718868E+01
              0.105049327452722E+02
              0.353511796495246E+01
             -0.642447110776435E+01
              0.900210773157026E+01
             -0.269475334410249E+01
             -0.574831650117281E+01
             -0.505776921043687E+01
             -0.862812136741771E+01
              0.402612687175842E+01
             -0.148541216820030E+02
             -0.133028556292409E+02
             -0.105620037451203E+01
             -0.485461297797311E+01
             -0.986796724627427E+01
              0.123343805167727E+02
              0.224522305872166E+02
             -0.448408297061939E+01
             -0.370481564531346E+00
             -0.105191537569681E+02
              0.108325733797860E+02
              0.335533725994504E+01
             -0.296458483444718E+01
             -0.642766579733204E+01
              0.231950664685725E+01
             -0.100232900283546E+02
             -0.213759986345054E+01
             -0.146932869219627E+02
              0.530796807808719E+01
              0.256730975543068E+01
             -0.445559111846336E+00
             -0.149165294074648E+01
             -0.613102364590557E+01
             -0.189545025722911E+01
              0.221212334241310E+02
             -0.272295523526512E+01
             -0.769189679047238E+01
             -0.112376433284567E+02
              0.217418827096388E+01
             -0.596043324053404E+01
              0.116012228284157E+01
              0.513234516233637E+01
              0.103222239619075E+01
              0.565508726942723E+01
              0.272366301753202E+01
              0.100372005865879E+02
              0.471693840526837E+01
             -0.572697452076664E+01
              0.767106161448891E+01
              0.598447279464518E+01
              0.209851728295962E+01
              0.683084386695741E+01
             -0.438809106644195E+01
              0.119909336209840E+02
              0.358811460837791E+01
             -0.532124887018084E+01
             -0.122240312816351E+01
             -0.278474076866785E+01
              0.317220743061806E+01
[...]
  254                map_scatter                           0.448627                  105   7
  255              map_backward                          2.571511                    216   6
  256                map_gather                            0.349006                  108   7
  257                m_alltoallv_z                         0.997092                  108   7
  258                map_scatter                           1.221343                  108   7
  259        ggaall_grid                           0.960506                            3   3
  260        m_sumb_d                              0.839240                           18   3
  261        forhar                                0.083133                            3   3
  262          m_sumb_d                              0.026351                          3   4
  263        strehar                               0.085980                            3   3
  264          m_sumb_d                              0.008418                          3   4
  265        m_bcast_d                             0.004153                            6   3
  266      potlok                              118.359789                              5   2
  267        fft3d_mpi                            42.571795                         1133   3
  268          fftbrc_mpi                           39.311865                       1133   4
  269            fftbas_plan_mpi                      39.308168                     1133   5
  270              dfftw_execute                         8.969835                   3399   6
  271              map_forward                          13.555010                   1138   6
  272                map_gather                            3.289208                  574   7
  273                m_alltoallv_z                         7.674284                  574   7
  274                map_scatter                           2.568786                  574   7
  275              map_backward                         15.853576                   1128   6
  276                map_gather                            2.141584                  564   7
  277                m_alltoallv_z                         6.876137                  564   7
  278                map_scatter                           6.813609                  564   7
  279        ggaall_grid                          14.062835                          101   3
  280        m_sumb_d                              1.519814                          510   3
  281        pothar                                0.024790                            5   3
  282          m_sumb_d                              0.001023                          5   4
  283        m_bcast_d                             0.109071                            5   3
  284      potlok_metagga                        0.000018                              5   2
  285      set_dd_magatom                        0.000003                              3   2
  286      set_dd_paw                            0.035818                              5   2
  287        set_rsgf_all                          0.000007                            5   3
  288        m_sumb_d                              0.035043                           35   3
  289      wavpre_noio                           0.114663                              2   2
  290        stufak                                0.024263                            2   3
  291      eddiag                                1.408535                              2   2
  292        overl                                 0.000039                            2   3
  293        redis_proj                            0.566297                            6   3
  294          m_alltoall_d                          0.566187                          6   4
  295        fftwav_mpi                            0.281281                            2   3
  296          fftwav                                0.281275                          2   4
  297            fft3d                                 0.128555                        2   5
  298        hamilt_local                          0.233285                            2   3
  299          vhamil                                0.058809                          2   4
  300          kinhamil                              0.174441                          2   4
  301            fftext_mpi                            0.166527                        2   5
  302              fft3d_mpi                             0.157730                      2   6
  303                fft3d                                 0.157707                    2   7
  304        redis_pw                              0.285508                            6   3
  305          m_alltoall_d                          0.254843                          6   4
  306        orth1                                 0.012066                            2   3
  307        m_sumb_d                              0.001847                            2   3
  308        shift_bands_between_low_high          0.000002                            2   3
  309        lincom                                0.016777                            2   3
  310      set_charge                            2.739458                              2   2
  311        soft_charge                           0.726586                            2   3
  312          fftwav_mpi                            0.104531                          2   4
  313            fftwav                                0.104522                        2   5
  314              fft3d                                 0.092057                      2   6
  315          pw_charge                             0.014296                          2   4
  316          m_sumb_d                              0.179249                          2   4
  317          fft_gq                                0.164155                          2   4
  318            fft3d_mpi                             0.159957                        2   5
  319              fftbrc_mpi                            0.051331                      2   6
  320                fftbas_plan_mpi                       0.051326                    2   7
  321                  dfftw_execute                         0.017590                  6   8
  322                  map_backward                          0.032738                  4   8
  323                    map_gather                            0.026115                4   9
  324                    m_alltoallv_z                         0.004792                4   9
  325                    map_scatter                           0.001743                4   9
  326        m_sumb_d                              0.216877                            2   3
  327        depsum                                0.082899                            2   3
  328          m_sumb_d                              0.082839                          2   4
  329        augmentation_charge                   0.089109                            2   3
  330          fft3d_mpi                             0.067621                          2   4
  331            fftbrc_mpi                            0.063609                        2   5
  332              fftbas_plan_mpi                       0.063602                      2   6
  333                dfftw_execute                         0.017200                    6   7
  334                map_backward                          0.044960                    4   7
  335                  map_gather                            0.009216                  2   8
  336                  m_alltoallv_z                         0.015236                  2   8
  337                  map_scatter                           0.020431                  2   8
 
 Flat profile
 ============
 
             routine name                   CPU           calls
 ---------------------------------------------------------------
 potlok                                722.785221          68
 m_alltoallv_z                         117.686111        6211
 m_sumb_d                               69.909578        2823
 set_charge                             49.663179          65
 map_scatter                            47.596305        6211
 dfftw_execute                          46.666399       18234
 ggaall_grid                            39.707105         167
 force_and_stress                       32.637701           3
 m_alltoall_d                           28.510796        1244
 map_gather                             26.357250        6211
 fft3d_mpi                              20.973761        6165
 fft3d                                  19.455878         324
 total_time                              8.690813           1
 fftwav                                  5.267739         237
 edwav                                   5.100087          62
 fftbas_plan_mpi                         4.979702        6078
 eccp                                    3.327661         129
 redis_pw                                1.967566         365
 soft_charge                             1.719375          65
 m_bcast_d                               1.577687         121
 lincom                                  1.568710         194
 vhamil                                  1.421237          56
 orth1                                   1.154791         156
 rpro_isp                                0.869705          39
 augmentation_charge                     0.834897          65
 w1_dscal                                0.626231          31
 m_bcast_z                               0.597187          68
 lapack                                  0.485399          20
 pw_charge                               0.444056          65
 fftext_mpi                              0.432524          87
 eddav                                   0.380986           5
 pothar                                  0.320154          68
 w1_copy                                 0.234384          60
 ggemm                                   0.227404          20
 elmin_all                               0.204147           3
 fft_gq                                  0.138026          65
 kinhamil                                0.130507          56
 map_backward                            0.123903        6140
 eddiag                                  0.116869          36
 map_forward                             0.108804        6016
 wavpre_noio                             0.090400           2
 strehar                                 0.077562           3
 strelo                                  0.076497           3
 apply_precond                           0.074052          15
 forhar                                  0.056782           3
 rspher_all                              0.056431          40
 setdij_                                 0.056171         147
 forloc                                  0.054585           3
 stufak                                  0.052245           3
 set_dd_paw                              0.045080          71
 inisym                                  0.043918           1
 phaser                                  0.032563          75
 choleski                                0.030317          65
 setup_precond                           0.020888           5
 fftbrc_mpi                              0.020196        6078
 redis_proj                              0.014962         879
 strkin                                  0.012013           3
 racc0                                   0.009230          51
 orthch                                  0.006886          65
 densta                                  0.006119          76
 crrexp_mul_wave                         0.005783         170
 rpro1                                   0.005671          46
 fewald                                  0.005527           3
 overl                                   0.004929         198
 crrexp_mul_work_add                     0.004179         102
 rpromu_gemm                             0.003541          78
 rsp                                     0.002433           3
 brgrid                                  0.002321           1
 rpromu                                  0.002199          39
 strnlr                                  0.002117           3
 depsum                                  0.001935          65
 newband                                 0.001093          25
 fftwav_mpi                              0.001080         237
 redis_pw_all                            0.000915          62
 overl1                                  0.000759          20
 raccmu_                                 0.000756          20
 hamiltmu                                0.000672          20
 hamilt_local                            0.000432          36
 redis_pw_over_bands                     0.000359          67
 fornlr                                  0.000305           3
 rcp                                     0.000271           3
 crpa_reader                             0.000269           1
 potlok_metagga                          0.000252          68
 set_rsgf_all                            0.000219          71
 fordep                                  0.000141           3
 w1_projall                              0.000074          15
 proall                                  0.000054           3
 posmap                                  0.000032           2
 truncate_high_frequency_w1              0.000031          25
 rotate_active_occupied_orbital          0.000027           3
 vectorpot                               0.000014           1
 set_dd_magatom                          0.000013           6
 shift_bands_between_low_high            0.000006           5
 ---------------------------------------------------------------
  summed up times    1265.88513898849     
 
 Accumulative profile
 ====================
 
             routine name                   CPU           calls
 ---------------------------------------------------------------
 total_time                           1265.885139           1
 elmin_all                            1082.959008           3
 potlok                               1029.973203          68
 fft3d_mpi                             269.550544        6165
 fftbrc_mpi                            243.538671        6078
 fftbas_plan_mpi                       243.518474        6078
 m_alltoallv_z                         117.686111        6211
 map_backward                          104.849052        6140
 set_charge                             92.221199          65
 map_forward                            87.023322        6016
 m_sumb_d                               69.909578        2823
 force_and_stress                       48.880185           3
 edwav                                  48.635215          62
 map_scatter                            47.596305        6211
 dfftw_execute                          46.666399       18234
 ggaall_grid                            39.707105         167
 m_alltoall_d                           28.510796        1244
 map_gather                             26.357250        6211
 soft_charge                            22.003635          65
 fftwav_mpi                             19.686585         237
 fftwav                                 19.685505         237
 fft3d                                  19.455878         324
 eddiag                                 18.021713          36
 redis_proj                             17.435263         879
 redis_pw                               13.058060         365
 eddav                                  11.336457           5
 depsum                                  6.178983          65
 rpro_isp                                5.729748          39
 fftext_mpi                              5.471477          87
 fft_gq                                  5.018976          65
 kinhamil                                4.025944          56
 densta                                  3.521664          76
 strnlr                                  3.480629           3
 eccp                                    3.327661         129
 augmentation_charge                     3.099402          65
 hamiltmu                                2.769446          20
 hamilt_local                            2.688272          36
 fornlr                                  2.394846           3
 orthch                                  1.870782          65
 m_bcast_d                               1.577687         121
 lincom                                  1.568710         194
 vhamil                                  1.421237          56
 orth1                                   1.154791         156
 set_dd_paw                              1.153707          71
 newband                                 1.043123          25
 redis_pw_over_bands                     0.760946          67
 redis_pw_all                            0.760587          62
 setdij_                                 0.692414         147
 w1_dscal                                0.626231          31
 m_bcast_z                               0.597187          68
 proall                                  0.591214           3
 lapack                                  0.485399          20
 pw_charge                               0.444056          65
 pothar                                  0.330634          68
 w1_copy                                 0.234384          60
 ggemm                                   0.227404          20
 wavpre_noio                             0.114663           2
 strelo                                  0.094643           3
 strehar                                 0.085980           3
 forhar                                  0.083133           3
 apply_precond                           0.074052          15
 rspher_all                              0.056431          40
 forloc                                  0.056276           3
 stufak                                  0.052245           3
 inisym                                  0.043950           1
 phaser                                  0.032563          75
 choleski                                0.030317          65
 setup_precond                           0.020888           5
 strkin                                  0.014980           3
 racc0                                   0.013408          51
 fewald                                  0.012066           3
 raccmu_                                 0.009433          20
 rpro1                                   0.008801          46
 rpromu                                  0.008392          39
 crrexp_mul_wave                         0.005783         170
 overl                                   0.004929         198
 fordep                                  0.004771           3
 crrexp_mul_work_add                     0.004179         102
 rpromu_gemm                             0.003541          78
 w1_projall                              0.002582          15
 rsp                                     0.002433           3
 brgrid                                  0.002321           1
 overl1                                  0.000759          20
 rcp                                     0.000271           3
 crpa_reader                             0.000269           1
 potlok_metagga                          0.000252          68
 set_rsgf_all                            0.000219          71
 posmap                                  0.000032           2
 truncate_high_frequency_w1              0.000031          25
 rotate_active_occupied_orbital          0.000027           3
 vectorpot                               0.000014           1
 set_dd_magatom                          0.000013           6
 shift_bands_between_low_high            0.000006           5
 ---------------------------------------------------------------
 
Profiling took   0.149113  0.058405  0.015863  0.015028 seconds
Profiling took   0.292278 seconds
