 vasp.6.3.2 27Jun22 (build Jan 03 2024 23:25:20) gamma-only                     
  
 executed on           IFC15_impi date 2024.01.11  01:10:54
 running  100 mpi-ranks, with    1 threads/rank
 distrk:  each k-point on  100 cores,    1 groups
 distr:  one band on NCORE=   2 cores,   50 groups


--------------------------------------------------------------------------------------------------------


 INCAR:
   ENCUT = 500.000000
   SIGMA = 0.010000
   EDIFF = 1.00e-05
   ALGO = A
   ISMEAR = 0
   NELM = 200
   NSW = 500
   NCORE = 2
   LCHARG = .TRUE.
   LWAVE = .TRUE.
   LREAL = Auto
   IBRION = 2
   EDIFFG = -0.05
   GGA = BF
   LUSE_VDW = .TRUE.
   ZAB_VDW = -1.8867
   LBEEFENS = .TRUE.

 POTCAR:    PAW_PBE H 15Jun2001                   
 POTCAR:    PAW_PBE O 08Apr2002                   
 -----------------------------------------------------------------------------
|                                                                             |
|               ----> ADVICE to this user running VASP <----                  |
|                                                                             |
|     You have switched on vdW-DFT.                                           |
|     This routine was written and supplied by Jiri Klimes. We recommend      |
|     that you carefully read and cite the following publications:            |
|       J. Klimes, D.R. Bowler, A. Michelides                                 |
|          J. Phys.: Cond Matt. 22 022201 (2010)                              |
|       J. Klimes, D.R. Bowler, A. Michelides                                 |
|          Phys. Rev. B. 83, 195131 (2011)                                    |
|     and references therein.                                                 |
|                                                                             |
 -----------------------------------------------------------------------------

 POTCAR:    PAW_PBE H 15Jun2001                   
   SHA256 =  030f79b5d3ab3cf0e668861823c8fb652ff669f3e15e46930bd03bfd63a607b6 H/POTCAR              
   COPYR  = (c) Copyright 15Jun2001 Georg Kresse                                                    
   COPYR  = This file is part of the software VASP. Any use, copying, and all other rights are regul
   COPYR  = If you do not have a valid VASP license, you may not use, copy or distribute this file. 
   VRHFIN =H: ultrasoft test                                                                        
   LEXCH  = PE                                                                                      
   EATOM  =    12.4884 eV,    0.9179 Ry                                                             
                                                                                                    
   TITEL  = PAW_PBE H 15Jun2001                                                                     
   LULTRA =        F    use ultrasoft PP ?                                                          
   IUNSCR =        0    unscreen: 0-lin 1-nonlin 2-no                                               
   RPACOR =    0.000    partial core radius                                                         
   POMASS =    1.000; ZVAL   =    1.000    mass and valenz                                          
   RCORE  =    1.100    outmost cutoff radius                                                       
   RWIGS  =    0.700; RWIGS  =    0.370    wigner-seitz radius (au A)                               
   ENMAX  =  250.000; ENMIN  =  200.000 eV                                                          
   RCLOC  =    0.701    cutoff for local pot                                                        
   LCOR   =        T    correct aug charges                                                         
   LPAW   =        T    paw PP                                                                      
   EAUG   =  400.000                                                                                
   RMAX   =    1.123    core radius for proj-oper                                                   
   RAUG   =    1.200    factor for augmentation sphere                                              
   RDEP   =    1.112    radius for radial grids                                                     
   RDEPT  =    0.926    core radius for aug-charge                                                  
                                                                                                    
   Atomic configuration                                                                             
    2 entries                                                                                       
     n  l   j            E        occ.                                                              
     1  0  0.50        -6.4927   1.0000                                                             
     2  1  0.50        -3.4015   0.0000                                                             
   Description                                                                                      
     l       E           TYP  RCUT    TYP  RCUT                                                     
     0     -6.4927494     23  1.100                                                                 
     0      6.8029130     23  1.100                                                                 
     1     -4.0817478     23  1.100                                                                 
  local pseudopotential read in
  atomic valenz-charges read in
  non local Contribution for L=           0  read in
    real space projection operators read in
  non local Contribution for L=           0  read in
    real space projection operators read in
  non local Contribution for L=           1  read in
    real space projection operators read in
    PAW grid and wavefunctions read in
 
   number of l-projection  operators is LMAX  =           3
   number of lm-projection operators is LMMAX =           5
 
 POTCAR:    PAW_PBE O 08Apr2002                   
   SHA256 =  818f92134a0a090dccd8ba1447fa70422a3b330e708bb4f08108d8ae51209ddf O/POTCAR              
   COPYR  = (c) Copyright 08Apr2002 Georg Kresse                                                    
   COPYR  = This file is part of the software VASP. Any use, copying, and all other rights are regul
   COPYR  = If you do not have a valid VASP license, you may not use, copy or distribute this file. 
   VRHFIN =O: s2p4                                                                                  
   LEXCH  = PE                                                                                      
   EATOM  =   432.3788 eV,   31.7789 Ry                                                             
                                                                                                    
   TITEL  = PAW_PBE O 08Apr2002                                                                     
   LULTRA =        F    use ultrasoft PP ?                                                          
   IUNSCR =        1    unscreen: 0-lin 1-nonlin 2-no                                               
   RPACOR =    1.200    partial core radius                                                         
   POMASS =   16.000; ZVAL   =    6.000    mass and valenz                                          
   RCORE  =    1.520    outmost cutoff radius                                                       
   RWIGS  =    1.550; RWIGS  =    0.820    wigner-seitz radius (au A)                               
   ENMAX  =  400.000; ENMIN  =  300.000 eV                                                          
   ICORE  =        2    local potential                                                             
   LCOR   =        T    correct aug charges                                                         
   LPAW   =        T    paw PP                                                                      
   EAUG   =  605.392                                                                                
   DEXC   =    0.000                                                                                
   RMAX   =    1.553    core radius for proj-oper                                                   
   RAUG   =    1.300    factor for augmentation sphere                                              
   RDEP   =    1.550    radius for radial grids                                                     
   RDEPT  =    1.329    core radius for aug-charge                                                  
                                                                                                    
   Atomic configuration                                                                             
    4 entries                                                                                       
     n  l   j            E        occ.                                                              
     1  0  0.50      -514.6923   2.0000                                                             
     2  0  0.50       -23.9615   2.0000                                                             
     2  1  0.50        -9.0305   4.0000                                                             
     3  2  1.50        -9.5241   0.0000                                                             
   Description                                                                                      
     l       E           TYP  RCUT    TYP  RCUT                                                     
     0    -23.9615318     23  1.200                                                                 
     0     -9.5240782     23  1.200                                                                 
     1     -9.0304911     23  1.520                                                                 
     1      8.1634956     23  1.520                                                                 
     2     -9.5240782      7  1.500                                                                 
  local pseudopotential read in
  partial core-charges read in
  partial kinetic energy density read in
  kinetic energy density of atom read in
  atomic valenz-charges read in
  non local Contribution for L=           0  read in
    real space projection operators read in
  non local Contribution for L=           0  read in
    real space projection operators read in
  non local Contribution for L=           1  read in
    real space projection operators read in
  non local Contribution for L=           1  read in
    real space projection operators read in
    PAW grid and wavefunctions read in
 
   number of l-projection  operators is LMAX  =           4
   number of lm-projection operators is LMMAX =           8
 
 -----------------------------------------------------------------------------
|                                                                             |
|               ----> ADVICE to this user running VASP <----                  |
|                                                                             |
|     You have a (more or less) 'small supercell' and for smaller cells       |
|     it is recommended to use the reciprocal-space projection scheme!        |
|     The real-space optimization is not efficient for small cells and it     |
|     is also less accurate ...                                               |
|     Therefore, set LREAL=.FALSE. in the INCAR file.                         |
|                                                                             |
 -----------------------------------------------------------------------------

 Optimization of the real space projectors (new method)

 maximal supplied QI-value         = 34.20
 optimisation between [QCUT,QGAM] = [ 11.29, 22.57] = [ 35.68,142.71] Ry 
 Optimized for a Real-space Cutoff    1.16 Angstroem

   l    n(q)    QCUT    max X(q) W(low)/X(q) W(high)/X(q)  e(spline) 
   0      8    11.287    19.460    0.40E-03    0.73E-03    0.16E-06
   0      8    11.287    12.209    0.38E-03    0.70E-03    0.15E-06
   1      7    11.287     4.655    0.22E-03    0.25E-04    0.22E-06
 Optimization of the real space projectors (new method)

 maximal supplied QI-value         = 24.76
 optimisation between [QCUT,QGAM] = [ 11.39, 22.77] = [ 36.31,145.25] Ry 
 Optimized for a Real-space Cutoff    1.00 Angstroem

   l    n(q)    QCUT    max X(q) W(low)/X(q) W(high)/X(q)  e(spline) 
   0      7    11.387    20.381    0.39E-03    0.13E-02    0.15E-06
   0      7    11.387    15.268    0.42E-03    0.14E-02    0.17E-06
   1      6    11.387     5.964    0.41E-03    0.11E-02    0.17E-06
   1      6    11.387     5.382    0.39E-03    0.87E-03    0.15E-06
 -----------------------------------------------------------------------------
|                                                                             |
|               ----> ADVICE to this user running VASP <----                  |
|                                                                             |
|     You enforced a specific xc type in the INCAR file but a different       |
|     type was found in the POTCAR file.                                      |
|     I HOPE YOU KNOW WHAT YOU ARE DOING!                                     |
|                                                                             |
 -----------------------------------------------------------------------------

  PAW_PBE H 15Jun2001                   :
 energy of atom  1       EATOM=  -12.4884
 kinetic energy error for atom=    0.0020 (will be added to EATOM!!)
  PAW_PBE O 08Apr2002                   :
 energy of atom  2       EATOM= -432.3788
 kinetic energy error for atom=    0.0224 (will be added to EATOM!!)
 
 
 POSCAR:  H  O
  positions in cartesian coordinates
  No initial velocities read in
 exchange correlation table for  LEXCH =       17
   RHO(1)=    0.500       N(1)  =     2000
   RHO(2)=  100.500       N(2)  =     4000

 VTST: version 4.1, (05/19/21)

 CHAIN: initializing optimizer
 
 OPT: Using VASP Conjugate-Gradient optimizer
 CHAIN: Read ICHAIN            0
 
 POSCAR:  H  O
  positions in cartesian coordinates
  No initial velocities read in
 


--------------------------------------------------------------------------------------------------------


 ion  position               nearest neighbor table
   1  0.528  0.468  0.512-   3 0.97
   2  0.528  0.537  0.512-   3 0.97
   3  0.503  0.502  0.513-   2 0.97   1 0.97
 
  LATTYP: Found a simple orthorhombic cell.
 ALAT       =    22.3170261383
 B/A-ratio  =     1.0606601451
 C/A-ratio  =     1.3442651281
  
  Lattice vectors:
  
 A1 = (   0.0000000000, -22.3170261383,   0.0000000000)
 A2 = (  23.6707801819,   0.0000000000,   0.0000000000)
 A3 = (   0.0000000000,   0.0000000000,  30.0000000000)


Analysis of symmetry for initial positions (statically):
=====================================================================
 Subroutine PRICEL returns:
 Original cell was already a primitive cell.
 

 Routine SETGRP: Setting up the symmetry group for a 
 simple orthorhombic supercell.


 Subroutine GETGRP returns: Found  1 space group operations
 (whereof  1 operations were pure point group operations)
 out of a pool of  8 trial point group operations.


The static configuration has the point symmetry C_1 .


Analysis of symmetry for dynamics (positions and initial velocities):
=====================================================================
 Subroutine PRICEL returns:
 Original cell was already a primitive cell.
 

 Routine SETGRP: Setting up the symmetry group for a 
 simple orthorhombic supercell.


 Subroutine GETGRP returns: Found  1 space group operations
 (whereof  1 operations were pure point group operations)
 out of a pool of  8 trial point group operations.


The dynamic configuration has the point symmetry C_1 .


 Subroutine INISYM returns: Found  1 space group operations
 (whereof  1 operations are pure point group operations),
 and found     1 'primitive' translations


----------------------------------------------------------------------------------------

                                     Primitive cell                                     

  volume of cell :   15847.8426

  direct lattice vectors                    reciprocal lattice vectors
    23.670780182  0.000000000  0.000000000     0.042246178  0.000000000  0.000000000
     0.000000000 22.317026138  0.000000000     0.000000000  0.044808838  0.000000000
     0.000000000  0.000000000 30.000000000     0.000000000  0.000000000  0.033333333

  length of vectors
    23.670780182 22.317026138 30.000000000     0.042246178  0.044808838  0.033333333

  position of ions in fractional coordinates (direct lattice)
     0.528456749  0.468364436  0.511932698
     0.528255364  0.536672803  0.511512870
     0.503348310  0.502478217  0.513137186

  ion indices of the primitive-cell ions
   primitive index   ion index
                 1           1
                 2           2
                 3           3

----------------------------------------------------------------------------------------

 
 
 KPOINTS: KPOINTS created by Atomic Simulation Env

Automatic generation of k-mesh.
 Grid dimensions read from file:
 generate k-points for:    1    1    1

 Generating k-lattice:

  Cartesian coordinates                     Fractional coordinates (reciprocal lattice)
     0.042246178  0.000000000  0.000000000     1.000000000  0.000000000  0.000000000
     0.000000000  0.044808838  0.000000000     0.000000000  1.000000000  0.000000000
     0.000000000  0.000000000  0.033333333     0.000000000  0.000000000  1.000000000

  Length of vectors
     0.042246178  0.044808838  0.033333333

  Shift w.r.t. Gamma in fractional coordinates (k-lattice)
     0.000000000  0.000000000  0.000000000

 
 Subroutine IBZKPT returns following result:
 ===========================================
 
 Found      1 irreducible k-points:
 
 Following reciprocal coordinates:
            Coordinates               Weight
  0.000000  0.000000  0.000000      1.000000
 
 Following cartesian coordinates:
            Coordinates               Weight
  0.000000  0.000000  0.000000      1.000000
 


--------------------------------------------------------------------------------------------------------




 Dimension of arrays:
   k-points           NKPTS =      1   k-points in BZ     NKDIM =      1   number of bands    NBANDS=     50
   number of dos      NEDOS =    301   number of ions     NIONS =      3
   non local maximal  LDIM  =      4   non local SUM 2l+1 LMDIM =      8
   total plane-waves  NPLWV = ******
   max r-space proj   IRMAX =   1285   max aug-charges    IRDMAX=   2625
   dimension x,y,z NGX =   140 NGY =  126 NGZ =  168
   dimension x,y,z NGXF=   280 NGYF=  252 NGZF=  336
   support grid    NGXF=   280 NGYF=  252 NGZF=  336
   ions per type =               2   1
   NGX,Y,Z   is equivalent  to a cutoff of   9.83,  9.39,  9.31 a.u.
   NGXF,Y,Z  is equivalent  to a cutoff of  19.67, 18.77, 18.62 a.u.

 SYSTEM =  unknown system                          
 POSCAR =   H  O                                   

 Startparameter for this run:
   NWRITE =      2    write-flag & timer
   PREC   = normal    normal or accurate (medium, high low for compatibility)
   ISTART =      0    job   : 0-new  1-cont  2-samecut
   ICHARG =      2    charge: 1-file 2-atom 10-const
   ISPIN  =      1    spin polarized calculation?
   LNONCOLLINEAR =      F non collinear calculations
   LSORBIT =      F    spin-orbit coupling
   INIWAV =      1    electr: 0-lowe 1-rand  2-diag
   LASPH  =      F    aspherical Exc in radial PAW
 Electronic Relaxation 1
   ENCUT  =  500.0 eV  36.75 Ry    6.06 a.u.  43.16 40.69 54.70*2*pi/ulx,y,z
   ENINI  =  500.0     initial cutoff
   ENAUG  =  605.4 eV  augmentation charge cutoff
   NELM   =    200;   NELMIN=  2; NELMDL= -5     # of ELM steps 
   EDIFF  = 0.1E-04   stopping-criterion for ELM
   LREAL  =      T    real-space projection
   NLSPLINE    = F    spline interpolate recip. space projectors
   LCOMPAT=      F    compatible to vasp.4.4
   GGA_COMPAT  = T    GGA compatible to vasp.4.4-vasp.4.6
   LMAXPAW     = -100 max onsite density
   LMAXMIX     =    2 max onsite mixed and CHGCAR
   VOSKOWN=      0    Vosko Wilk Nusair interpolation
   ROPT   =   -0.00050  -0.00050
 Ionic relaxation
   EDIFFG = -.5E-01   stopping-criterion for IOM
   NSW    =    500    number of steps for IOM
   NBLOCK =      1;   KBLOCK =    500    inner block; outer block 
   IBRION =      2    ionic relax: 0-MD 1-quasi-New 2-CG
   NFREE  =      1    steps in history (QN), initial steepest desc. (CG)
   ISIF   =      2    stress and relaxation
   IWAVPR =     11    prediction:  0-non 1-charg 2-wave 3-comb
   ISYM   =      2    0-nonsym 1-usesym 2-fastsym
   LCORR  =      T    Harris-Foulkes like correction to forces

   POTIM  = 0.5000    time-step for ionic-motion
   TEIN   =    0.0    initial temperature
   TEBEG  =    0.0;   TEEND  =   0.0 temperature during run
   SMASS  =  -3.00    Nose mass-parameter (am)
   estimated Nose-frequenzy (Omega)   =  0.10E-29 period in steps = 0.13E+47 mass=  -0.128E-25a.u.
   SCALEE = 1.0000    scale energy and forces
   NPACO  =    256;   APACO  = 10.0  distance and # of slots for P.C.
   PSTRESS=    0.0 pullay stress

  Mass of Ions in am
   POMASS =   1.00 16.00
  Ionic Valenz
   ZVAL   =   1.00  6.00
  Atomic Wigner-Seitz radii
   RWIGS  =  -1.00 -1.00
  virtual crystal weights 
   VCA    =   1.00  1.00
   NELECT =       8.0000    total number of electrons
   NUPDOWN=      -1.0000    fix difference up-down

 DOS related values:
   EMIN   =  10.00;   EMAX   =-10.00  energy-range for DOS
   EFERMI =   0.00
   ISMEAR =     0;   SIGMA  =   0.01  broadening in eV -4-tet -1-fermi 0-gaus

 Electronic relaxation 2 (details)
   IALGO  =     58    algorithm
   LDIAG  =      T    sub-space diagonalisation (order eigenvalues)
   LSUBROT=      F    optimize rotation matrix (better conditioning)
   TURBO    =      0    0=normal 1=particle mesh
   IRESTART =      0    0=no restart 2=restart with 2 vectors
   NREBOOT  =      0    no. of reboots
   NMIN     =      0    reboot dimension
   EREF     =   0.00    reference energy to select bands
   IMIX   =      4    mixing-type and parameters
     AMIX     =   0.40;   BMIX     =  1.00
     AMIX_MAG =   1.60;   BMIX_MAG =  1.00
     AMIN     =   0.10
     WC   =   100.;   INIMIX=   1;  MIXPRE=   1;  MAXMIX= -45

 Intra band minimization:
   WEIMIN = 0.0010     energy-eigenvalue tresh-hold
   EBREAK =  0.50E-07  absolut break condition
   DEPER  =   0.30     relativ break condition  

   TIME   =   0.40     timestep for ELM

  volume/ion in A,a.u.               =    5282.61     35648.84
  Fermi-wavevector in a.u.,A,eV,Ry     =   0.130351  0.246328  0.231182  0.016991
  Thomas-Fermi vector in A             =   0.769859
 
 Write flags
   LWAVE        =      T    write WAVECAR
   LDOWNSAMPLE  =      F    k-point downsampling of WAVECAR
   LCHARG       =      T    write CHGCAR
   LVTOT        =      F    write LOCPOT, total local potential
   LVHAR        =      F    write LOCPOT, Hartree potential only
   LELF         =      F    write electronic localiz. function (ELF)
   LORBIT       =      0    0 simple, 1 ext, 2 COOP (PROOUT), +10 PAW based schemes


 Dipole corrections
   LMONO  =      F    monopole corrections only (constant potential shift)
   LDIPOL =      F    correct potential (dipole corrections)
   IDIPOL =      0    1-x, 2-y, 3-z, 4-all directions 
   EPSILON=  1.0000000 bulk dielectric constant

 Exchange correlation treatment:
   GGA     =    BF    GGA type
   LEXCH   =    17    internal setting for exchange type
   LIBXC   =     F    Libxc                    
   VOSKOWN =     0    Vosko Wilk Nusair interpolation
   LHFCALC =     F    Hartree Fock is set to
   LHFONE  =     F    Hartree Fock one center treatment
   AEXX    =    0.0000 exact exchange contribution

 vdW DFT:
   LUSE_VDW   =     T    switch on vdW DFT
   Zab_VDW    =******    correlation parameter
   PARAM1     =0.1234
   PARAM2     =1.0000
   PARAM3     =0.0000
   -- rVV10 --
   BPARAM     = 6.3000
   CPARAM     = 0.0093

 Linear response parameters
   LEPSILON=     F    determine dielectric tensor
   LRPA    =     F    only Hartree local field effects (RPA)
   LNABLA  =     F    use nabla operator in PAW spheres
   LVEL    =     F    velocity operator in full k-point grid
   CSHIFT  =0.1000    complex shift for real part using Kramers Kronig
   OMEGAMAX=  -1.0    maximum frequency
   DEG_THRESHOLD= 0.2000000E-02 threshold for treating states as degnerate
   RTIME   =   -0.100 relaxation time in fs
  (WPLASMAI=    0.000 imaginary part of plasma frequency in eV, 0.658/RTIME)
   DFIELD  = 0.0000000 0.0000000 0.0000000 field for delta impulse in time
 
  Optional k-point grid parameters
   LKPOINTS_OPT  =     F    use optional k-point grid
   KPOINTS_OPT_MODE=     1    mode for optional k-point grid
 
 Orbital magnetization related:
   ORBITALMAG=     F  switch on orbital magnetization
   LCHIMAG   =     F  perturbation theory with respect to B field
   DQ        =  0.001000  dq finite difference perturbation B field
   LLRAUG    =     F  two centre corrections for induced B field



--------------------------------------------------------------------------------------------------------


 conjugate gradient relaxation of ions
 charge density and potential will be updated during run
 non-spin polarized calculation
 Conjugate gradient for all bands (Freysoldt, et al. PRB 79, 241103 (2009))
 preconditioned conjugated gradient                                        
 perform sub-space diagonalisation
    before iterative eigenvector-optimisation
 modified Broyden-mixing scheme, WC =      100.0
 initial mixing is a Kerker type mixing with AMIX =  0.4000 and BMIX =      1.0000
 Hartree-type preconditioning will be used
 using additional bands           46
 real space projection scheme for non local part
 use partial core corrections
 no Harris-corrections to forces 
 use gradient corrections 
 use of overlap-Matrix (Vanderbilt PP)
 Gauss-broadening in eV      SIGMA  =   0.01


--------------------------------------------------------------------------------------------------------


  energy-cutoff  :      500.00
  volume of cell :    15847.84
      direct lattice vectors                 reciprocal lattice vectors
    23.670780182  0.000000000  0.000000000     0.042246178  0.000000000  0.000000000
     0.000000000 22.317026138  0.000000000     0.000000000  0.044808838  0.000000000
     0.000000000  0.000000000 30.000000000     0.000000000  0.000000000  0.033333333

  length of vectors
    23.670780182 22.317026138 30.000000000     0.042246178  0.044808838  0.033333333


 
 k-points in units of 2pi/SCALE and weight: KPOINTS created by Atomic Simulation Env
   0.00000000  0.00000000  0.00000000       1.000
 
 k-points in reciprocal lattice and weights: KPOINTS created by Atomic Simulation Env
   0.00000000  0.00000000  0.00000000       1.000
 
 position of ions in fractional coordinates (direct lattice) 
   0.52845675  0.46836444  0.51193270
   0.52825536  0.53667280  0.51151287
   0.50334831  0.50247822  0.51313719
 
 position of ions in cartesian coordinates  (Angst):
  12.50898355 10.45250136 15.35798094
  12.50421661 11.97694097 15.34538609
  11.91464720 11.21381950 15.39411558
 


--------------------------------------------------------------------------------------------------------


 use parallel FFT for orbitals z direction half grid
 k-point   1 :   0.0000 0.0000 0.0000  plane waves:  201172

 maximum and minimum number of plane-waves per node :    100594   100578

 maximum number of plane-waves:    201172
 maximum index in each direction: 
   IXMAX=   43   IYMAX=   40   IZMAX=   54
   IXMIN=  -43   IYMIN=  -40   IZMIN=    0


 real space projection operators:
  total allocation   :        142.64 KBytes
  max/ min on nodes  :         72.06         70.58


 parallel 3D FFT for wavefunctions:
    minimum data exchange during FFTs selected (reduces bandwidth)
 parallel 3D FFT for charge:
    minimum data exchange during FFTs selected (reduces bandwidth)


 total amount of memory used by VASP MPI-rank0   148947. kBytes
=======================================================================

   base      :      30000. kBytes
   nonlr-proj:         88. kBytes
   fftplans  :      40330. kBytes
   grid      :      73696. kBytes
   one-center:          3. kBytes
   wavefun   :       4830. kBytes
 
     INWAV:  cpu time      0.0001: real time      0.0001
 Broyden mixing: mesh for mixing (old mesh)
   NGX = 87   NGY = 81   NGZ =109
  (NGX  =280   NGY  =252   NGZ  =336)
  gives a total of 768123 points

 initial charge density was supplied:
 charge density of overlapping atoms calculated
 number of electron       8.0000000 magnetization 
 keeping initial charge density in first step


--------------------------------------------------------------------------------------------------------


 Maximum index for non-local projection operator          615
 Maximum index for augmentation-charges            0 (set IRDMAX)


--------------------------------------------------------------------------------------------------------


 First call to EWALD:  gamma=   0.071
 Maximum number of real-space cells 3x 3x 2
 Maximum number of reciprocal cells 3x 2x 3

    FEWALD:  cpu time      0.0082: real time      0.0082


--------------------------------------- Iteration      1(   1)  ---------------------------------------


vdW kernel read from vdw_kernel.bindat
  0.0000  0.2424  0.5071  0.7962  1.1119  1.4567  1.8333  2.2446  2.6937  3.1842
  3.7199  4.3049  4.9438  5.6415  6.4036  7.2358  8.1446  9.1372 10.2212 11.4050
 12.6979 14.1099 15.6519 17.3360 19.1751 21.1837 23.3773 25.7729 28.3892 31.2465
 34.3669 37.7748 41.4965 45.5611 50.0000
 
    POTLOK:  cpu time     13.3617: real time     13.5009
    SETDIJ:  cpu time      0.0095: real time      0.0095
    TRIAL :  cpu time      2.6463: real time      2.7097
    CORREC:  cpu time      0.0006: real time      0.0006
    --------------------------------------------
      LOOP:  cpu time     16.0283: real time     16.2342

 eigenvalue-minimisations  :   150
 total energy-change (2. order) : 0.7915251E+02  (-0.1095648E+03)
 number of electron       8.0000000 magnetization 
 augmentation part        8.0000000 magnetization 

 Free energy of the ion-electron system (eV)
  ---------------------------------------------------
  alpha Z        PSCENC =         0.01415027
  Ewald energy   TEWEN  =       137.65476427
  -Hartree energ DENC   =      -495.84671527
  -exchange      EXHF   =         0.00000000
  -V(xc)+E(xc)   XCENC  =        32.43088511
  PAW double counting   =       350.31426239     -352.17320053
  entropy T*S    EENTRO =        -0.00000000
  eigenvalues    EBANDS =       -56.45406516
  atomic energy  EATOM  =       463.21242928
  ---------------------------------------------------
  free energy    TOTEN  =        79.15251037 eV

  energy without entropy =       79.15251037  energy(sigma->0) =       79.15251037


--------------------------------------------------------------------------------------------------------




--------------------------------------- Iteration      1(   2)  ---------------------------------------


    TRIAL :  cpu time      2.7018: real time      2.7063
    CORREC:  cpu time      0.0003: real time      0.0003
    --------------------------------------------
      LOOP:  cpu time      2.7090: real time      2.7413

 eigenvalue-minimisations  :   200
 total energy-change (2. order) :-0.8509488E+02  (-0.8509488E+02)
 number of electron       8.0000000 magnetization 
 augmentation part        8.0000000 magnetization 

 Free energy of the ion-electron system (eV)
  ---------------------------------------------------
  alpha Z        PSCENC =         0.01415027
  Ewald energy   TEWEN  =       137.65476427
  -Hartree energ DENC   =      -495.84671527
  -exchange      EXHF   =         0.00000000
  -V(xc)+E(xc)   XCENC  =        32.43088511
  PAW double counting   =       350.31426239     -352.17320053
  entropy T*S    EENTRO =        -0.00000000
  eigenvalues    EBANDS =      -141.54894738
  atomic energy  EATOM  =       463.21242928
  ---------------------------------------------------
  free energy    TOTEN  =        -5.94237185 eV

  energy without entropy =       -5.94237185  energy(sigma->0) =       -5.94237185


--------------------------------------------------------------------------------------------------------




--------------------------------------- Iteration      1(   3)  ---------------------------------------


    TRIAL :  cpu time      1.4921: real time      1.4933
    CORREC:  cpu time      0.0004: real time      0.0004
    --------------------------------------------
      LOOP:  cpu time      1.4982: real time      1.5212

 eigenvalue-minimisations  :   100
 total energy-change (2. order) :-0.9120966E+01  (-0.9120966E+01)
 number of electron       8.0000000 magnetization 
 augmentation part        8.0000000 magnetization 

 Free energy of the ion-electron system (eV)
  ---------------------------------------------------
  alpha Z        PSCENC =         0.01415027
  Ewald energy   TEWEN  =       137.65476427
  -Hartree energ DENC   =      -495.84671527
  -exchange      EXHF   =         0.00000000
  -V(xc)+E(xc)   XCENC  =        32.43088511
  PAW double counting   =       350.31426239     -352.17320053
  entropy T*S    EENTRO =        -0.00000000
  eigenvalues    EBANDS =      -150.66991376
  atomic energy  EATOM  =       463.21242928
  ---------------------------------------------------
  free energy    TOTEN  =       -15.06333823 eV

  energy without entropy =      -15.06333823  energy(sigma->0) =      -15.06333823


--------------------------------------------------------------------------------------------------------




--------------------------------------- Iteration      1(   4)  ---------------------------------------


    TRIAL :  cpu time      1.5003: real time      1.5049
    CORREC:  cpu time      0.0005: real time      0.0005
    --------------------------------------------
      LOOP:  cpu time      1.5061: real time      1.5332

 eigenvalue-minimisations  :   100
 total energy-change (2. order) :-0.1042726E+00  (-0.1042726E+00)
 number of electron       8.0000000 magnetization 
 augmentation part        8.0000000 magnetization 

 Free energy of the ion-electron system (eV)
  ---------------------------------------------------
  alpha Z        PSCENC =         0.01415027
  Ewald energy   TEWEN  =       137.65476427
  -Hartree energ DENC   =      -495.84671527
  -exchange      EXHF   =         0.00000000
  -V(xc)+E(xc)   XCENC  =        32.43088511
  PAW double counting   =       350.31426239     -352.17320053
  entropy T*S    EENTRO =        -0.00000000
  eigenvalues    EBANDS =      -150.77418634
  atomic energy  EATOM  =       463.21242928
  ---------------------------------------------------
  free energy    TOTEN  =       -15.16761081 eV

  energy without entropy =      -15.16761081  energy(sigma->0) =      -15.16761081


--------------------------------------------------------------------------------------------------------




--------------------------------------- Iteration      1(   5)  ---------------------------------------


    TRIAL :  cpu time      2.6191: real time      2.6226
    CORREC:  cpu time      0.0003: real time      0.0003
    CHARGE:  cpu time      0.3233: real time      0.3234
    --------------------------------------------
      LOOP:  cpu time      2.9483: real time      2.9750

 eigenvalue-minimisations  :   200
 total energy-change (2. order) :-0.6935811E-03  (-0.6935810E-03)
 number of electron       7.9999989 magnetization 
 augmentation part        0.8572417 magnetization 

 Free energy of the ion-electron system (eV)
  ---------------------------------------------------
  alpha Z        PSCENC =         0.01415027
  Ewald energy   TEWEN  =       137.65476427
  -Hartree energ DENC   =      -495.84671527
  -exchange      EXHF   =         0.00000000
  -V(xc)+E(xc)   XCENC  =        32.43088511
  PAW double counting   =       350.31426239     -352.17320053
  entropy T*S    EENTRO =        -0.00000000
  eigenvalues    EBANDS =      -150.77487992
  atomic energy  EATOM  =       463.21242928
  ---------------------------------------------------
  free energy    TOTEN  =       -15.16830439 eV

  energy without entropy =      -15.16830439  energy(sigma->0) =      -15.16830439


--------------------------------------------------------------------------------------------------------




--------------------------------------- Iteration      1(   6)  ---------------------------------------


    POTLOK:  cpu time     11.9621: real time     11.9764
    SETDIJ:  cpu time      0.0082: real time      0.0082
    TRIAL :  cpu time      1.1076: real time      1.2027
    CORREC:  cpu time     12.9525: real time     12.9692
    CHARGE:  cpu time      0.3168: real time      0.4933
    --------------------------------------------
      LOOP:  cpu time     26.3500: real time     26.6751

 eigenvalue-minimisations  :     0
 total energy-change (2. order) : 0.6062598E+01  (-0.3074300E+01)
 number of electron       7.9999991 magnetization 
 augmentation part        0.7399729 magnetization 

 Free energy of the ion-electron system (eV)
  ---------------------------------------------------
  alpha Z        PSCENC =         0.01415027
  Ewald energy   TEWEN  =       137.65476427
  -Hartree energ DENC   =      -585.74779972
  -exchange      EXHF   =         0.00000000
  -V(xc)+E(xc)   XCENC  =        37.49923172
  PAW double counting   =       619.72520817     -622.56897644
  entropy T*S    EENTRO =        -0.00000000
  eigenvalues    EBANDS =       -58.89471386
  atomic energy  EATOM  =       463.21242928
  ---------------------------------------------------
  free energy    TOTEN  =        -9.10570630 eV

  energy without entropy =       -9.10570630  energy(sigma->0) =       -9.10570630


--------------------------------------------------------------------------------------------------------




--------------------------------------- Iteration      1(   7)  ---------------------------------------


    POTLOK:  cpu time     12.4722: real time     12.4860
    SETDIJ:  cpu time      0.0077: real time      0.0077
    TRIAL :  cpu time      0.8840: real time      0.8855
    CORREC:  cpu time     12.4656: real time     12.4806
    CHARGE:  cpu time      0.2311: real time      0.2325
    --------------------------------------------
      LOOP:  cpu time     26.0642: real time     26.1237

 eigenvalue-minimisations  :     0
 total energy-change (2. order) :-0.3176123E+01  (-0.2705844E+00)
 number of electron       7.9999991 magnetization 
 augmentation part        0.7038159 magnetization 

 Free energy of the ion-electron system (eV)
  ---------------------------------------------------
  alpha Z        PSCENC =         0.01415027
  Ewald energy   TEWEN  =       137.65476427
  -Hartree energ DENC   =      -538.75957287
  -exchange      EXHF   =         0.00000000
  -V(xc)+E(xc)   XCENC  =        34.79916173
  PAW double counting   =       557.99359239     -560.32734302
  entropy T*S    EENTRO =        -0.00000000
  eigenvalues    EBANDS =      -106.86901145
  atomic energy  EATOM  =       463.21242928
  ---------------------------------------------------
  free energy    TOTEN  =       -12.28182939 eV

  energy without entropy =      -12.28182939  energy(sigma->0) =      -12.28182939


--------------------------------------------------------------------------------------------------------




--------------------------------------- Iteration      1(   8)  ---------------------------------------


    POTLOK:  cpu time     12.0979: real time     12.1125
    SETDIJ:  cpu time      0.1945: real time      0.1945
    TRIAL :  cpu time      0.9978: real time      0.9995
    CORREC:  cpu time     12.4595: real time     12.4742
    CHARGE:  cpu time      0.2326: real time      0.2327
    --------------------------------------------
      LOOP:  cpu time     25.9847: real time     26.0371

 eigenvalue-minimisations  :     0
 total energy-change (2. order) :-0.2706396E+00  (-0.1486203E+00)
 number of electron       7.9999991 magnetization 
 augmentation part        0.6939164 magnetization 

 Free energy of the ion-electron system (eV)
  ---------------------------------------------------
  alpha Z        PSCENC =         0.01415027
  Ewald energy   TEWEN  =       137.65476427
  -Hartree energ DENC   =      -535.88000600
  -exchange      EXHF   =         0.00000000
  -V(xc)+E(xc)   XCENC  =        34.66153438
  PAW double counting   =       555.49323625     -557.61372146
  entropy T*S    EENTRO =        -0.00000000
  eigenvalues    EBANDS =      -110.09485600
  atomic energy  EATOM  =       463.21242928
  ---------------------------------------------------
  free energy    TOTEN  =       -12.55246901 eV

  energy without entropy =      -12.55246901  energy(sigma->0) =      -12.55246901


--------------------------------------------------------------------------------------------------------




--------------------------------------- Iteration      1(   9)  ---------------------------------------


    POTLOK:  cpu time     11.9387: real time     11.9531
    SETDIJ:  cpu time      0.0075: real time      0.0075
    TRIAL :  cpu time      0.8806: real time      0.8816
    CORREC:  cpu time     12.6727: real time     12.6899
    CHARGE:  cpu time      0.2458: real time      0.2466
    --------------------------------------------
      LOOP:  cpu time     25.7722: real time     25.8058

 eigenvalue-minimisations  :     0
 total energy-change (2. order) :-0.1478264E+00  (-0.7616482E-01)
 number of electron       7.9999991 magnetization 
 augmentation part        0.6936070 magnetization 

 Free energy of the ion-electron system (eV)
  ---------------------------------------------------
  alpha Z        PSCENC =         0.01415027
  Ewald energy   TEWEN  =       137.65476427
  -Hartree energ DENC   =      -535.28467698
  -exchange      EXHF   =         0.00000000
  -V(xc)+E(xc)   XCENC  =        34.66688133
  PAW double counting   =       556.09695913     -558.14703682
  entropy T*S    EENTRO =        -0.00000000
  eigenvalues    EBANDS =      -110.91376590
  atomic energy  EATOM  =       463.21242928
  ---------------------------------------------------
  free energy    TOTEN  =       -12.70029541 eV

  energy without entropy =      -12.70029541  energy(sigma->0) =      -12.70029541


--------------------------------------------------------------------------------------------------------




--------------------------------------- Iteration      1(  10)  ---------------------------------------


    POTLOK:  cpu time     12.0837: real time     12.1003
    SETDIJ:  cpu time      0.0076: real time      0.0076
    TRIAL :  cpu time      0.8831: real time      0.8872
    CORREC:  cpu time     12.1820: real time     12.2017
    CHARGE:  cpu time      0.2925: real time      0.2931
    --------------------------------------------
      LOOP:  cpu time     25.4511: real time     25.5136

 eigenvalue-minimisations  :     0
 total energy-change (2. order) :-0.7461892E-01  (-0.2310926E-01)
 number of electron       7.9999991 magnetization 
 augmentation part        0.6947467 magnetization 

 Free energy of the ion-electron system (eV)
  ---------------------------------------------------
  alpha Z        PSCENC =         0.01415027
  Ewald energy   TEWEN  =       137.65476427
  -Hartree energ DENC   =      -533.72555275
  -exchange      EXHF   =         0.00000000
  -V(xc)+E(xc)   XCENC  =        34.58701527
  PAW double counting   =       553.07447102     -555.12891323
  entropy T*S    EENTRO =        -0.00000000
  eigenvalues    EBANDS =      -112.46327846
  atomic energy  EATOM  =       463.21242928
  ---------------------------------------------------
  free energy    TOTEN  =       -12.77491433 eV

  energy without entropy =      -12.77491433  energy(sigma->0) =      -12.77491433


--------------------------------------------------------------------------------------------------------




--------------------------------------- Iteration      1(  11)  ---------------------------------------


    POTLOK:  cpu time     11.6873: real time     11.7022
    SETDIJ:  cpu time      0.0076: real time      0.0076
    TRIAL :  cpu time      0.8837: real time      0.8876
    CORREC:  cpu time     12.2784: real time     12.2980
    CHARGE:  cpu time      0.2483: real time      0.2492
    --------------------------------------------
      LOOP:  cpu time     25.1339: real time     25.1732

 eigenvalue-minimisations  :     0
 total energy-change (2. order) :-0.2302691E-01  (-0.6039041E-02)
 number of electron       7.9999991 magnetization 
 augmentation part        0.6967881 magnetization 

 Free energy of the ion-electron system (eV)
  ---------------------------------------------------
  alpha Z        PSCENC =         0.01415027
  Ewald energy   TEWEN  =       137.65476427
  -Hartree energ DENC   =      -533.04885189
  -exchange      EXHF   =         0.00000000
  -V(xc)+E(xc)   XCENC  =        34.53949373
  PAW double counting   =       550.18993853     -552.25765319
  entropy T*S    EENTRO =        -0.00000000
  eigenvalues    EBANDS =      -113.10221225
  atomic energy  EATOM  =       463.21242928
  ---------------------------------------------------
  free energy    TOTEN  =       -12.79794124 eV

  energy without entropy =      -12.79794124  energy(sigma->0) =      -12.79794124


--------------------------------------------------------------------------------------------------------




--------------------------------------- Iteration      1(  12)  ---------------------------------------


    POTLOK:  cpu time     11.6757: real time     11.6928
    SETDIJ:  cpu time      0.0074: real time      0.0074
    TRIAL :  cpu time      0.8775: real time      0.8813
    CORREC:  cpu time     12.1270: real time     12.1448
    CHARGE:  cpu time      0.2442: real time      0.2443
    --------------------------------------------
      LOOP:  cpu time     24.9614: real time     25.0002

 eigenvalue-minimisations  :     0
 total energy-change (2. order) :-0.6040186E-02  (-0.1602007E-02)
 number of electron       7.9999991 magnetization 
 augmentation part        0.6979572 magnetization 

 Free energy of the ion-electron system (eV)
  ---------------------------------------------------
  alpha Z        PSCENC =         0.01415027
  Ewald energy   TEWEN  =       137.65476427
  -Hartree energ DENC   =      -532.98365799
  -exchange      EXHF   =         0.00000000
  -V(xc)+E(xc)   XCENC  =        34.52809769
  PAW double counting   =       548.74564968     -550.82928316
  entropy T*S    EENTRO =        -0.00000000
  eigenvalues    EBANDS =      -113.14613148
  atomic energy  EATOM  =       463.21242928
  ---------------------------------------------------
  free energy    TOTEN  =       -12.80398143 eV

  energy without entropy =      -12.80398143  energy(sigma->0) =      -12.80398143


--------------------------------------------------------------------------------------------------------




--------------------------------------- Iteration      1(  13)  ---------------------------------------


    POTLOK:  cpu time     11.7331: real time     11.7487
    SETDIJ:  cpu time      0.0076: real time      0.0076
    TRIAL :  cpu time      0.8798: real time      0.8834
    CORREC:  cpu time     11.8313: real time     11.8485
    CHARGE:  cpu time      0.2452: real time      0.2461
    --------------------------------------------
      LOOP:  cpu time     24.6992: real time     24.7592

 eigenvalue-minimisations  :     0
 total energy-change (2. order) :-0.1604714E-02  (-0.5193368E-03)
 number of electron       7.9999991 magnetization 
 augmentation part        0.6984288 magnetization 

 Free energy of the ion-electron system (eV)
  ---------------------------------------------------
  alpha Z        PSCENC =         0.01415027
  Ewald energy   TEWEN  =       137.65476427
  -Hartree energ DENC   =      -532.96350543
  -exchange      EXHF   =         0.00000000
  -V(xc)+E(xc)   XCENC  =        34.52352296
  PAW double counting   =       548.18389147     -550.27723324
  entropy T*S    EENTRO =        -0.00000000
  eigenvalues    EBANDS =      -113.15360572
  atomic energy  EATOM  =       463.21242928
  ---------------------------------------------------
  free energy    TOTEN  =       -12.80558614 eV

  energy without entropy =      -12.80558614  energy(sigma->0) =      -12.80558614


--------------------------------------------------------------------------------------------------------




--------------------------------------- Iteration      1(  14)  ---------------------------------------


    POTLOK:  cpu time     11.4154: real time     11.4308
    SETDIJ:  cpu time      0.0075: real time      0.0075
    TRIAL :  cpu time      0.8848: real time      0.8860
    CORREC:  cpu time     11.9808: real time     11.9971
    CHARGE:  cpu time      0.2436: real time      0.2436
    --------------------------------------------
      LOOP:  cpu time     24.5353: real time     24.5895

 eigenvalue-minimisations  :     0
 total energy-change (2. order) :-0.5207116E-03  (-0.2056458E-03)
 number of electron       7.9999991 magnetization 
 augmentation part        0.6984216 magnetization 

 Free energy of the ion-electron system (eV)
  ---------------------------------------------------
  alpha Z        PSCENC =         0.01415027
  Ewald energy   TEWEN  =       137.65476427
  -Hartree energ DENC   =      -533.03491488
  -exchange      EXHF   =         0.00000000
  -V(xc)+E(xc)   XCENC  =        34.52675538
  PAW double counting   =       548.21341393     -550.31028148
  entropy T*S    EENTRO =        -0.00000000
  eigenvalues    EBANDS =      -113.08242362
  atomic energy  EATOM  =       463.21242928
  ---------------------------------------------------
  free energy    TOTEN  =       -12.80610685 eV

  energy without entropy =      -12.80610685  energy(sigma->0) =      -12.80610685


--------------------------------------------------------------------------------------------------------




--------------------------------------- Iteration      1(  15)  ---------------------------------------


    POTLOK:  cpu time     11.4929: real time     11.5062
    SETDIJ:  cpu time      0.0075: real time      0.0075
    TRIAL :  cpu time      0.8815: real time      0.8830
    CORREC:  cpu time     11.7669: real time     11.7820
    CHARGE:  cpu time      0.2287: real time      0.2298
    --------------------------------------------
      LOOP:  cpu time     24.3828: real time     24.4373

 eigenvalue-minimisations  :     0
 total energy-change (2. order) :-0.2057141E-03  (-0.8175639E-04)
 number of electron       7.9999991 magnetization 
 augmentation part        0.6982566 magnetization 

 Free energy of the ion-electron system (eV)
  ---------------------------------------------------
  alpha Z        PSCENC =         0.01415027
  Ewald energy   TEWEN  =       137.65476427
  -Hartree energ DENC   =      -533.10697077
  -exchange      EXHF   =         0.00000000
  -V(xc)+E(xc)   XCENC  =        34.53109023
  PAW double counting   =       548.44743069     -550.54395419
  entropy T*S    EENTRO =        -0.00000000
  eigenvalues    EBANDS =      -113.01525234
  atomic energy  EATOM  =       463.21242928
  ---------------------------------------------------
  free energy    TOTEN  =       -12.80631257 eV

  energy without entropy =      -12.80631257  energy(sigma->0) =      -12.80631257


--------------------------------------------------------------------------------------------------------




--------------------------------------- Iteration      1(  16)  ---------------------------------------


    POTLOK:  cpu time     11.5567: real time     11.5708
    SETDIJ:  cpu time      0.0076: real time      0.0076
    TRIAL :  cpu time      0.8847: real time      0.8859
    CORREC:  cpu time     12.1593: real time     12.1733
    CHARGE:  cpu time      0.2380: real time      0.2380
    --------------------------------------------
      LOOP:  cpu time     24.8507: real time     24.9017

 eigenvalue-minimisations  :     0
 total energy-change (2. order) :-0.8148018E-04  (-0.2722198E-04)
 number of electron       7.9999991 magnetization 
 augmentation part        0.6982334 magnetization 

 Free energy of the ion-electron system (eV)
  ---------------------------------------------------
  alpha Z        PSCENC =         0.01415027
  Ewald energy   TEWEN  =       137.65476427
  -Hartree energ DENC   =      -533.13247413
  -exchange      EXHF   =         0.00000000
  -V(xc)+E(xc)   XCENC  =        34.53289251
  PAW double counting   =       548.64244181     -550.73756635
  entropy T*S    EENTRO =        -0.00000000
  eigenvalues    EBANDS =      -112.99303170
  atomic energy  EATOM  =       463.21242928
  ---------------------------------------------------
  free energy    TOTEN  =       -12.80639405 eV

  energy without entropy =      -12.80639405  energy(sigma->0) =      -12.80639405


--------------------------------------------------------------------------------------------------------




--------------------------------------- Iteration      1(  17)  ---------------------------------------


    POTLOK:  cpu time     11.3818: real time     11.3959
    SETDIJ:  cpu time      0.1891: real time      0.1891
    TRIAL :  cpu time      0.9830: real time      0.9843
    CORREC:  cpu time     11.9690: real time     11.9839
    CHARGE:  cpu time      0.2310: real time      0.2310
    --------------------------------------------
      LOOP:  cpu time     24.7797: real time     24.8101

 eigenvalue-minimisations  :     0
 total energy-change (2. order) :-0.2708493E-04  (-0.7659355E-05)
 number of electron       7.9999991 magnetization 
 augmentation part        0.6982082 magnetization 

 Free energy of the ion-electron system (eV)
  ---------------------------------------------------
  alpha Z        PSCENC =         0.01415027
  Ewald energy   TEWEN  =       137.65476427
  -Hartree energ DENC   =      -533.16543149
  -exchange      EXHF   =         0.00000000
  -V(xc)+E(xc)   XCENC  =        34.53491890
  PAW double counting   =       548.77276188     -550.86728448
  entropy T*S    EENTRO =        -0.00000000
  eigenvalues    EBANDS =      -112.96272977
  atomic energy  EATOM  =       463.21242928
  ---------------------------------------------------
  free energy    TOTEN  =       -12.80642113 eV

  energy without entropy =      -12.80642113  energy(sigma->0) =      -12.80642113


--------------------------------------------------------------------------------------------------------




--------------------------------------- Iteration      1(  18)  ---------------------------------------


    POTLOK:  cpu time     11.5789: real time     11.5937
    SETDIJ:  cpu time      0.0073: real time      0.0073
    TRIAL :  cpu time      0.8830: real time      0.8844
    CORREC:  cpu time     11.7993: real time     11.8134
    EDDIAG:  cpu time      0.3530: real time      0.3607
    CHARGE:  cpu time      0.2290: real time      0.2291
    --------------------------------------------
      LOOP:  cpu time     24.8550: real time     24.9143

 eigenvalue-minimisations  :     0
 total energy-change (2. order) :-0.7616889E-05  (-0.2168453E-05)
 number of electron       7.9999991 magnetization 
 augmentation part        0.6982123 magnetization 

 Free energy of the ion-electron system (eV)
  ---------------------------------------------------
  alpha Z        PSCENC =         0.01415027
  Ewald energy   TEWEN  =       137.65476427
  -Hartree energ DENC   =      -533.16486677
  -exchange      EXHF   =         0.00000000
  -V(xc)+E(xc)   XCENC  =        34.53483116
  PAW double counting   =       548.78370545     -550.87799857
  entropy T*S    EENTRO =        -0.00000000
  eigenvalues    EBANDS =      -112.96344385
  atomic energy  EATOM  =       463.21242928
  ---------------------------------------------------
  free energy    TOTEN  =       -12.80642875 eV

  energy without entropy =      -12.80642875  energy(sigma->0) =      -12.80642875


--------------------------------------------------------------------------------------------------------


  average scaling for gradient   1.8990


 average (electrostatic) potential at core
  the test charge radii are     0.5201  0.7215
  (the norm of the test charge is              1.0000)
       1 -45.9600       2 -45.9703       3 -81.1954
 
 
 
 E-fermi :  -7.4230     XC(G=0):  -0.0531     alpha+bet : -0.0082

 Fermi energy:        -7.4229771857

 k-point     1 :       0.0000    0.0000    0.0000
  band No.  band energies     occupation 
      1     -25.8121      2.00000
      2     -13.5034      2.00000
      3      -9.6360      2.00000
      4      -7.5299      2.00000
      5      -1.4315      0.00000
      6       0.0063      0.00000
      7       0.0516      0.00000
      8       0.1338      0.00000
      9       0.1747      0.00000
     10       0.2275      0.00000
     11       0.2706      0.00000
     12       0.3134      0.00000
     13       0.3375      0.00000
     14       0.3477      0.00000
     15       0.3777      0.00000
     16       0.4281      0.00000
     17       0.4379      0.00000
     18       0.4506      0.00000
     19       0.4582      0.00000
     20       0.5003      0.00000
     21       0.5047      0.00000
     22       0.5264      0.00000
     23       0.5599      0.00000
     24       0.5760      0.00000
     25       0.5888      0.00000
     26       0.6210      0.00000
     27       0.6700      0.00000
     28       0.6727      0.00000
     29       0.6991      0.00000
     30       0.7206      0.00000
     31       0.7223      0.00000
     32       0.7286      0.00000
     33       0.7331      0.00000
     34       0.7982      0.00000
     35       0.8226      0.00000
     36       0.8233      0.00000
     37       0.8871      0.00000
     38       0.9211      0.00000
     39       0.9424      0.00000
     40       0.9473      0.00000
     41       0.9500      0.00000
     42       0.9832      0.00000
     43       0.9905      0.00000
     44       1.0084      0.00000
     45       1.0831      0.00000
     46       1.1280      0.00000
     47       1.1364      0.00000
     48       1.1761      0.00000
     49       1.2037      0.00000
     50       1.2451      0.00000


--------------------------------------------------------------------------------------------------------


 soft charge-density along one line, spin component           1
         0         1         2         3         4         5         6         7         8         9
 total charge-density along one line
 
 pseudopotential strength for first ion, spin component:           1
 -2.402  -4.151  -0.002  -0.000   0.002
 -4.151  -7.089  -0.007  -0.000   0.005
 -0.002  -0.007  -0.320   0.000  -0.005
 -0.000  -0.000   0.000  -0.326  -0.000
  0.002   0.005  -0.005  -0.000  -0.322
 total augmentation occupancy for first ion, spin component:           1
  3.641  -0.732   0.570   0.026  -0.431
 -0.732   0.204  -0.107  -0.005   0.087
  0.570  -0.107   0.098   0.004  -0.056
  0.026  -0.005   0.004   0.041  -0.002
 -0.431   0.087  -0.056  -0.002   0.070


------------------------ aborting loop because EDIFF is reached ----------------------------------------


    FORLOC:  cpu time      0.0213: real time      0.0213
    FORNL :  cpu time      0.8552: real time      1.0083
    STRESS:  cpu time      1.4564: real time      1.4590
    FORCOR:  cpu time     11.5744: real time     11.5876
    OFIELD:  cpu time      0.0010: real time      0.0010

  FORCE on cell =-STRESS in cart. coord.  units (eV):
  Direction    XX          YY          ZZ          XY          YZ          ZX
  --------------------------------------------------------------------------------------
  Alpha Z     0.01415     0.01415     0.01415
  Ewald      53.78373   110.54155   -26.67039    -0.14838    -1.01399    -4.81064
  Hartree   182.19332   194.53499   156.43770    -0.03696    -0.17948    -0.87542
  E(xc)     -38.04651   -37.67266   -38.57824    -0.00132    -0.00761    -0.03829
  Local    -323.81438  -377.78485  -238.15016     0.15474     0.89199     4.20580
  n-local   -31.16929   -30.38787   -30.94604    -0.01487     0.00772     0.00931
  augment     6.77410     5.80982     8.16548     0.00345     0.02010     0.10002
  Kinetic   150.15618   134.85889   169.68636     0.05897     0.29218     1.40644
  Fock        0.00000     0.00000     0.00000     0.00000     0.00000     0.00000
  -------------------------------------------------------------------------------------
  Total      -0.10870    -0.08598    -0.04114     0.01563     0.01091    -0.00278
  in kB      -0.01099    -0.00869    -0.00416     0.00158     0.00110    -0.00028
  external pressure =       -0.01 kB  Pullay stress =        0.00 kB


 VOLUME and BASIS-vectors are now :
 -----------------------------------------------------------------------------
  energy-cutoff  :      500.00
  volume of cell :    15847.84
      direct lattice vectors                 reciprocal lattice vectors
    23.670780182  0.000000000  0.000000000     0.042246178  0.000000000  0.000000000
     0.000000000 22.317026138  0.000000000     0.000000000  0.044808838  0.000000000
     0.000000000  0.000000000 30.000000000     0.000000000  0.000000000  0.033333333

  length of vectors
    23.670780182 22.317026138 30.000000000     0.042246178  0.044808838  0.033333333


 FORCES acting on ions:
    Electron-Ion                     Ewald-Force                    Non-Local-Force
 -----------------------------------------------------------------------------------------------
   -.519E+02 0.721E+02 0.311E+01   0.569E+02 -.790E+02 -.341E+01   -.505E+01 0.695E+01 0.303E+00
   -.516E+02 -.724E+02 0.431E+01   0.565E+02 0.794E+02 -.473E+01   -.503E+01 -.699E+01 0.419E+00
   0.640E+02 0.213E+00 -.460E+01   -.113E+03 -.387E+00 0.813E+01   0.495E+02 0.205E+00 -.353E+01
 -----------------------------------------------------------------------------------------------
   -.394E+02 -.908E-01 0.282E+01   0.000E+00 0.000E+00 0.000E+00   0.394E+02 0.160E+00 -.281E+01
 
 
 POSITION                                       TOTAL-FORCE (eV/Angst)
 -----------------------------------------------------------------------------------
     12.50898     10.45250     15.35798        -0.058307      0.013202     -0.000179
     12.50422     11.97694     15.34539        -0.027971     -0.020151     -0.002328
     11.91465     11.21382     15.39412         0.086278      0.006949      0.002507
 -----------------------------------------------------------------------------------
    total drift:                               -0.025047      0.069660      0.014269


--------------------------------------------------------------------------------------------------------



  FREE ENERGIE OF THE ION-ELECTRON SYSTEM (eV)
  ---------------------------------------------------
  free  energy   TOTEN  =       -12.80642875 eV

  energy  without entropy=      -12.80642875  energy(sigma->0) =      -12.80642875
 


--------------------------------------------------------------------------------------------------------


 BEEFens 2000 ensemble energies
             -0.873297968864961E+01
             -0.230609914122674E+00
             -0.187939114931621E+01
              0.608861605130530E+01
             -0.304576877040522E+01
             -0.232597899775068E+01
             -0.617335314727124E+01
             -0.131936277970688E+02
             -0.534507451708990E+01
             -0.573354104077515E+01
             -0.481810909078852E+01
              0.543395506185515E+00
              0.307871935924513E+00
             -0.254301932226220E-01
              0.468316334373846E+00
              0.651459839302535E+01
             -0.294898269726525E+01
             -0.190571722983929E+01
              0.301122978540262E+01
             -0.154532463357582E+02
              0.762650617143365E+01
             -0.301210236526769E+01
             -0.836602512965010E+00
             -0.143507494560498E+01
             -0.311201638518384E-01
             -0.857167492557565E+00
              0.124307052959893E+02
             -0.264001611400663E+01
             -0.116566216673554E+01
             -0.745445053118632E+01
              0.102150233477647E+02
             -0.122638837998564E+01
             -0.564977469944365E+01
              0.279457803863930E+01
             -0.431667323906872E+00
              0.340458556038839E+01
             -0.115951955052850E+00
              0.441551596910532E+00
              0.466510484912100E+01
             -0.141596269177228E+02
              0.772812712029509E+01
              0.158953884042588E+01
             -0.123414471846381E+01
             -0.430211327876427E+01
              0.169315863201243E+01
             -0.224137054673491E+01
              0.663764091326354E+01
              0.502410312555641E+01
             -0.321877856822101E+01
             -0.425750585439086E+01
             -0.413590131209075E+01
             -0.510320824736721E+01
              0.270646511468004E+01
             -0.719306699575732E+01
              0.203089604408069E+01
              0.842909225622452E+01
              0.982855369755873E+01
              0.467335709264284E+01
              0.245705243629783E+01
              0.420462245233448E+01
              0.126674162118472E+02
              0.270301925999082E+01
             -0.771942256674752E+01
             -0.166474396458474E+01
             -0.394325117867882E+01
              0.864970307552687E+01
             -0.105072550683681E+02
             -0.847848165660741E+01
             -0.430649820532587E+01
             -0.204139942242769E+01
             -0.578660750523510E+01
              0.386901297611509E+01
              0.182034533112513E+01
              0.191957511006041E+01
             -0.543616361327632E+01
             -0.486553112005666E+01
             -0.783194018172090E+01
              0.479984290622815E+01
             -0.449897045305832E+01
              0.418078933701660E+01
             -0.102961419487003E+01
             -0.419870897211469E+01
             -0.745416635245047E+01
             -0.213880371302284E+01
             -0.207929722132576E+01
             -0.211375893920721E+01
              0.553785071695328E+01
              0.102779731544268E+02
             -0.600996745729256E+01
             -0.110698399753982E+02
             -0.269294666899489E+01
              0.153821723384217E+02
             -0.781312157005790E+01
              0.439898951880847E+01
             -0.134286573401374E+01
             -0.868549899038816E+01
              0.390795947692637E+01
              0.466679260110292E+01
             -0.203291618711977E+01
              0.431215044306994E+01
             -0.376867062709249E+01
             -0.782780860041314E+01
              0.133696037572101E+02
              0.616075222630712E+01
              0.351858617361295E+01
              0.164845478568673E+01
              0.276542665488300E+01
              0.114779033785423E+02
             -0.379689995149197E+01
              0.501622014618050E+00
             -0.194647442413896E+02
              0.276142929946516E+01
             -0.941661440336756E+01
              0.180977179408779E+01
              0.292962085264772E+01
             -0.485231253887527E+01
             -0.724104062254942E+01
              0.570218146680418E+00
             -0.422955073569648E+01
              0.558514416264599E+01
             -0.636392998405134E+01
             -0.789359065307053E+00
             -0.528806136232199E+01
             -0.360197265233403E+00
              0.263050812409539E+00
              0.271409410070100E+01
              0.308287313796427E-01
             -0.102765615662229E+01
              0.889074701048898E+01
              0.127148761199754E+02
              0.674832316210752E+01
              0.984906191887091E+01
             -0.197070074229800E+01
              0.123743071282502E+01
              0.729626731230945E+01
             -0.182879770373283E-01
             -0.105598688429391E+02
             -0.590026080173214E+01
             -0.689938286032442E+01
             -0.412498617103509E+01
              0.370214080635172E+01
             -0.166816383817090E+02
             -0.184819725132262E+01
              0.612953039584396E+01
             -0.570654584929017E+01
             -0.441158991083378E+01
              0.759456799780268E+01
              0.669481544477671E+01
             -0.418926361212781E+01
              0.372522803791657E+01
             -0.352426912014971E+01
              0.522523393510920E+01
              0.104823737404287E+01
              0.194819018214722E+01
             -0.117503076768072E+02
             -0.676901267799703E+01
             -0.135847164472997E+01
             -0.382685458070785E+00
             -0.567395148123825E+01
              0.152161940784454E+02
             -0.198981109120682E+01
             -0.418743031784618E+01
              0.550268025231854E+01
             -0.637822599933830E+01
             -0.503539731941362E+01
              0.438377423806955E+01
              0.150960928412429E+01
              0.153264202772033E+01
              0.186447039665404E+01
             -0.151665361689631E+01
              0.188558726284004E+01
              0.820206379820631E+01
             -0.398537423748439E+01
              0.281908336653261E+01
              0.125079225100968E+02
              0.433352467581412E+01
             -0.617456124119030E+00
             -0.260275743098418E+01
              0.213206429288969E+02
             -0.308458291138077E+01
              0.536407786182967E+01
              0.384062058355111E+01
              0.428555499482439E+01
              0.128730759700370E+02
              0.656725334957054E+01
             -0.603608219406609E+00
              0.316735987411974E+01
              0.697863980613538E+01
              0.521255332519382E+01
             -0.820617101007764E+01
              0.131166535734870E+02
             -0.120436787532638E+02
             -0.189824477286018E+01
              0.789143234336989E+01
              0.170216727897256E+01
              0.593220977382501E+00
              0.417394528104912E+01
              0.264118621159484E+01
              0.457534834086714E+01
             -0.864585218525093E+01
              0.513109911394892E+00
             -0.340728749547576E+01
             -0.845825264766944E+00
             -0.218278912335876E+00
             -0.154451100399289E+01
             -0.808558354496490E+00
              0.117363691409861E+02
             -0.808381062065546E+00
             -0.406958199697831E+01
             -0.365459389977274E+00
              0.188016105827338E+01
             -0.856101409168238E+01
             -0.694677000722575E+01
             -0.476533937841593E+01
             -0.863148891131097E+01
             -0.244700744688807E+01
             -0.567090496269492E+01
              0.250783518063860E+01
              0.136146502884564E-01
             -0.170144773536580E+01
             -0.117576416680059E+01
              0.860315277326578E+00
             -0.264751387017144E+01
              0.906022775776802E+01
             -0.118488233848180E+02
             -0.174301606507578E+01
             -0.215327308604956E+01
              0.237351573911334E+01
              0.270262458207019E+01
             -0.689986122161966E+01
             -0.188676859875278E+01
              0.621661041106211E+01
             -0.318411538857476E+01
              0.188967589146727E+01
              0.505287971485349E+01
             -0.670722141760010E-01
              0.159438269726980E+02
             -0.199394552401224E+01
             -0.498331752847389E+01
              0.186673501941911E+00
             -0.379511436788606E+01
              0.721921596033977E+01
             -0.618698902732969E+01
              0.183435246083842E+01
              0.730407505515162E+01
             -0.194525304508919E+01
              0.163832711787724E+02
              0.175633219722151E+02
             -0.984796278287223E+01
              0.793733274756238E+01
              0.285180450755945E+01
             -0.757657375610806E+01
              0.274351846329753E+01
              0.554863729103560E+01
              0.603510343962643E+01
              0.645623734854141E+00
              0.240866007775303E+01
              0.101630216854218E+02
             -0.319590281673116E+01
              0.153354392298722E+01
              0.963782561764086E+01
             -0.507759824009133E+01
             -0.288859856737107E+01
              0.790260900952907E+01
              0.425467932015647E+01
              0.106969996701041E+02
              0.435701343765219E+01
              0.158393329360910E+01
              0.344005202147019E+01
              0.582401617556264E+01
             -0.687929382277248E+01
              0.722685631110103E+00
              0.310446634410835E+01
              0.127998283796472E+01
              0.325447448569587E+01
             -0.852028329673692E+01
              0.465105676205532E+01
             -0.603029084504395E+01
             -0.435687172790021E+01
              0.246006242791477E+01
             -0.167731713981097E+01
              0.796815271992891E+01
             -0.263833191989814E+01
              0.380871141893164E+01
              0.424086130611055E+01
              0.109076614661039E+02
              0.750552156408352E+01
              0.711415335699237E+01
             -0.988902203927239E+00
             -0.117654327680435E+01
             -0.430112743088920E+01
              0.110751596740222E+02
              0.113882946878653E+02
              0.518976565388370E+01
             -0.358499947418132E+01
              0.690661226196805E+01
             -0.697166568939210E+00
              0.277649648367310E+01
              0.938516132028386E+01
             -0.342055445836696E+00
             -0.152854009991669E+01
             -0.340225793644790E+01
             -0.804917146676556E+01
              0.133109688817222E+02
              0.659755020026490E+01
             -0.857341214523110E+01
             -0.252056926932442E+01
              0.351170324277070E+01
             -0.167541581300834E+01
              0.880552351413593E+01
              0.217418239105680E+01
              0.111089609526107E+02
              0.386367537137189E+01
             -0.340538191483957E+01
              0.272304841499932E+01
             -0.879605456972762E+00
             -0.377075261960819E+01
              0.228182093236225E+01
              0.254991606516727E+01
              0.124297897582033E+02
              0.106488966989209E+02
              0.783011690380957E+01
              0.975119919850002E+01
              0.105598323712692E+01
             -0.375590678633451E+01
              0.185046123975457E+01
             -0.479344087933067E+01
             -0.747570690294585E+01
             -0.794235585862667E+01
             -0.422995824902035E+01
             -0.152027626608996E+02
             -0.476755229141639E+01
             -0.118817333241805E+02
              0.265514902348020E+01
             -0.644498538552977E+01
              0.659633828201445E+01
             -0.133185837190746E+02
             -0.417356922332100E+01
              0.611771810106594E+01
              0.296943092673382E+01
             -0.121225062612766E+02
              0.779024275942261E+01
             -0.387195161282332E+01
              0.757812891858802E+01
             -0.395384283608301E+01
             -0.106675476466094E+02
              0.232864486133151E+01
             -0.887474315431015E+01
             -0.116567381292663E+01
             -0.123928186716852E+00
              0.590953051832902E+01
              0.174307498244372E+02
             -0.615832988272666E+01
             -0.513348283761811E+01
             -0.786815803604242E+00
             -0.141006917413403E+01
             -0.110838632186022E+02
             -0.813168480198654E+01
              0.718829255723828E+01
             -0.292567953464427E+01
              0.265986999576491E+01
             -0.681142843908195E+01
             -0.193503060717035E+01
             -0.588272696324507E+01
              0.688035119866508E+01
              0.204990687742601E+01
             -0.339370554765064E+01
             -0.212862683474960E+01
              0.161639598951696E+01
             -0.114243163031562E+01
              0.559812429148891E+01
             -0.372937035314705E+01
              0.109619512908434E+01
              0.461861867127980E+01
              0.201173251454674E+01
             -0.296055195935018E+01
              0.216147807474501E+02
              0.797108374113779E+01
              0.103829215836256E+01
              0.108847312768255E+01
             -0.846883253572305E+01
              0.444871411730043E+01
             -0.104344277977073E+02
             -0.436055782953783E+01
             -0.815857582753078E+01
             -0.256056054922325E+01
              0.805974655184390E+01
             -0.795989163610744E+01
              0.312897885144800E+01
             -0.551187676031773E+00
              0.283781120297327E+00
             -0.478162380641349E+01
             -0.590652519717808E+01
             -0.761104823501597E+00
             -0.520579983086523E+01
             -0.315354534232055E+01
             -0.549664731173791E+01
             -0.914511552480498E+00
             -0.451487726892353E+01
             -0.686105974758215E+01
              0.326040204949171E+01
             -0.208762499206642E+01
              0.301078232207989E+01
              0.140288351322673E+01
             -0.102994313877247E+02
             -0.729343377822036E+01
             -0.645389574897893E+01
              0.472913467625247E+01
             -0.503762173412639E+00
             -0.871201934593644E+01
              0.789422737525490E+01
             -0.591441713984967E+01
              0.774347836111488E+01
             -0.417077825721159E+01
             -0.674640694731936E+01
              0.370097263567513E+01
             -0.984622695962891E+01
             -0.478921069231890E+01
              0.874130071139576E+01
              0.294103752398496E+01
             -0.553785769089026E+01
              0.767693910722144E+01
             -0.227992406352520E+01
             -0.491033261118380E+01
             -0.427594266669893E+01
             -0.723861464939044E+01
              0.341179138587727E+01
             -0.123795645465649E+02
             -0.111195918880642E+02
             -0.889693980134069E+00
             -0.401293802694133E+01
             -0.832088557289602E+01
              0.103791688913402E+02
              0.188499931882911E+02
             -0.365227010335209E+01
             -0.303362207241257E+00
             -0.879827576992741E+01
              0.903474827712600E+01
              0.287929738249676E+01
             -0.263528171948384E+01
             -0.528518218923055E+01
              0.192687344746329E+01
             -0.837190963641399E+01
             -0.179958433577892E+01
             -0.122809837334238E+02
              0.454278332899472E+01
              0.205122069720986E+01
             -0.433512675977113E+00
             -0.130183275219448E+01
             -0.532178734770422E+01
             -0.161215328454714E+01
              0.186444269637891E+02
             -0.220330031152983E+01
             -0.653386775246044E+01
             -0.945151991392689E+01
[...]
  343        fft3d_mpi                            34.845465                         1133   3
  344          fftbrc_mpi                           32.222995                       1133   4
  345            fftbas_plan_mpi                      32.219768                     1133   5
  346              dfftw_execute                         9.363199                   3399   6
  347              map_forward                          12.288114                   1138   6
  348                map_gather                            1.527498                  574   7
  349                m_alltoallv_z                         5.374794                  574   7
  350                map_scatter                           5.368112                  574   7
  351              map_backward                          9.700635                   1128   6
  352                map_gather                            3.523910                  564   7
  353                m_alltoallv_z                         4.356240                  564   7
  354                map_scatter                           1.804080                  564   7
  355        ggaall_grid                           3.878981                          101   3
  356        m_sumb_d                              0.223336                          510   3
  357        pothar                                0.032229                            5   3
  358          m_sumb_d                              0.005362                          5   4
  359        m_bcast_d                             0.105308                            5   3
  360      potlok_metagga                        0.000022                              5   2
  361      set_dd_magatom                        0.000002                              3   2
  362      set_dd_paw                            0.036154                              5   2
  363        set_rsgf_all                          0.000008                            5   3
  364        m_sumb_d                              0.035201                           35   3
  365      wavpre_noio                           0.090372                              2   2
  366        stufak                                0.023102                            2   3
  367      eddiag                                0.705712                              2   2
  368        overl                                 0.000033                            2   3
  369        redis_proj                            0.003453                            6   3
  370          m_alltoall_d                          0.003381                          6   4
  371        fftwav_mpi                            0.331796                            2   3
  372          fft3d_mpi                             0.264119                          2   4
  373            fftbrc_mpi                            0.202428                        2   5
  374              fftbas_plan_mpi                       0.202420                      2   6
  375                dfftw_execute                         0.089892                    6   7
  376                map_forward                           0.110820                    4   7
  377                  map_gather                            0.020057                  2   8
  378                  m_alltoallv_z                         0.010864                  2   8
  379                  map_scatter                           0.031576                  2   8
  380        hamilt_local                          0.280653                            2   3
  381          vhamil                                0.099116                          2   4
  382          kinhamil                              0.181500                          2   4
  383            fftext_mpi                            0.177996                        2   5
  384              fft3d_mpi                             0.170391                      2   6
  385                fftbrc_mpi                            0.116737                    2   7
  386                  fftbas_plan_mpi                       0.116728                  2   8
  387                    dfftw_execute                         0.076158                6   9
  388                    map_backward                          0.038798                4   9
  389                      map_gather                            0.016473              2  10
  390                      m_alltoallv_z                         0.007859              2  10
  391                      map_scatter                           0.014398              2  10
  392        redis_pw                              0.061957                            6   3
  393          m_alltoall_d                          0.048133                          6   4
  394        orth1                                 0.006538                            2   3
  395        m_sumb_d                              0.003495                            2   3
  396        shift_bands_between_low_high          0.000002                            2   3
  397        lincom                                0.006779                            2   3
  398      set_charge                            0.610673                              2   2
  399        soft_charge                           0.533077                            2   3
  400          fftwav_mpi                            0.094013                          2   4
  401            fft3d_mpi                             0.081481                        2   5
  402              fftbrc_mpi                            0.067113                      2   6
  403                fftbas_plan_mpi                       0.067109                    2   7
  404                  dfftw_execute                         0.041735                  6   8
  405                  map_forward                           0.024023                  4   8
  406                    map_gather                            0.004059                2   9
  407                    m_alltoallv_z                         0.003004                2   9
  408                    map_scatter                           0.007225                2   9
  409          pw_charge                             0.012515                          2   4
  410          m_sumb_d                              0.162803                          2   4
  411          fft_gq                                0.065305                          2   4
  412            fft3d_mpi                             0.060693                        2   5
  413              fftbrc_mpi                            0.052246                      2   6
  414                fftbas_plan_mpi                       0.052238                    2   7
  415                  dfftw_execute                         0.019980                  6   8
  416                  map_backward                          0.031180                  4   8
  417                    map_gather                            0.022020                4   9
  418                    m_alltoallv_z                         0.008026                4   9
  419                    map_scatter                           0.001059                4   9
  420        depsum                                0.000683                            2   3
  421          m_sumb_d                              0.000628                          2   4
  422        augmentation_charge                   0.071173                            2   3
  423          m_sumb_d                              0.000256                          2   4
  424          fft3d_mpi                             0.054084                          2   4
  425            fftbrc_mpi                            0.050155                        2   5
  426              fftbas_plan_mpi                       0.050150                      2   6
  427                dfftw_execute                         0.016575                    6   7
  428                map_backward                          0.032369                    4   7
  429                  map_gather                            0.014292                  2   8
  430                  m_alltoallv_z                         0.013097                  2   8
  431                  map_scatter                           0.004919                  2   8
 
 Flat profile
 ============
 
             routine name                   CPU           calls
 ---------------------------------------------------------------
 potlok                                553.943439          60
 total_time                            351.119302           1
 dfftw_execute                          56.994091       17328
 m_alltoallv_z                          54.916585        5893
 map_scatter                            37.030010        5893
 force_and_stress                       27.346129           3
 map_gather                             25.288687        5893
 fft3d_mpi                              19.868366        5776
 ggaall_grid                            14.778727         159
 m_sumb_d                               11.781396        3710
 fftwav_mpi                              6.042907         217
 fftbas_plan_mpi                         4.648244        5776
 edwav                                   4.070910          54
 map_forward                             3.892400        5862
 m_alltoall_d                            3.146871        1108
 eccp                                    2.660033         113
 vhamil                                  2.331010          52
 soft_charge                             2.131513          57
 m_bcast_d                               1.244062         133
 rpro_isp                                1.133666          39
 elmin_all                               0.948085           3
 augmentation_charge                     0.779661          57
 redis_pw                                0.773304         329
 lincom                                  0.572866         170
 eddav                                   0.570356           5
 m_bcast_z                               0.550213          51
 w1_dscal                                0.530877          27
 orth1                                   0.485878         144
 setdij_                                 0.394110         139
 pw_charge                               0.361163          57
 lapack                                  0.342348          20
 pothar                                  0.318052          60
 fftext_mpi                              0.295114          79
 set_dd_paw                              0.202947          63
 set_charge                              0.171631          57
 fft_gq                                  0.120234          57
 w1_copy                                 0.105781          60
 strelo                                  0.102522           3
 map_backward                            0.085748        5690
 ggemm                                   0.082540          20
 wavpre_noio                             0.067270           2
 kinhamil                                0.060950          52
 forloc                                  0.060572           3
 rspher_all                              0.049215          40
 stufak                                  0.047312           3
 inisym                                  0.042528           1
 strehar                                 0.042032           3
 apply_precond                           0.035960          15
 eddiag                                  0.030489          32
 choleski                                0.024354          57
 forhar                                  0.024170           3
 fftbrc_mpi                              0.019711        5776
 racc0                                   0.015635          47
 redis_proj                              0.011654         779
 rpro1                                   0.009721          42
 setup_precond                           0.008102           5
 rpromu                                  0.006337          39
 strkin                                  0.006187           3
 fewald                                  0.005288           3
 orthch                                  0.004891          57
 overl                                   0.004686         178
 densta                                  0.004681          68
 rpromu_gemm                             0.003626         117
 brgrid                                  0.002180           1
 strnlr                                  0.001894           3
 depsum                                  0.001550          57
 redis_pw_all                            0.001444          54
 rsp                                     0.001444           3
 newband                                 0.000896          25
 overl1                                  0.000848          20
 hamiltmu                                0.000720          20
 hamilt_local                            0.000666          32
 fornlr                                  0.000342           3
 raccmu_                                 0.000321          20
 redis_pw_over_bands                     0.000282          59
 crpa_reader                             0.000257           1
 potlok_metagga                          0.000237          60
 rcp                                     0.000157           3
 fordep                                  0.000126           3
 set_rsgf_all                            0.000105          63
 w1_projall                              0.000104          15
 truncate_high_frequency_w1              0.000044          25
 phaser                                  0.000040          71
 proall                                  0.000037           3
 rotate_active_occupied_orbital          0.000037           3
 posmap                                  0.000019           2
 vectorpot                               0.000015           1
 set_dd_magatom                          0.000012           6
 shift_bands_between_low_high            0.000004           5
 ---------------------------------------------------------------
  summed up times    1192.76092791557     
 
 Accumulative profile
 ====================
 
             routine name                   CPU           calls
 ---------------------------------------------------------------
 total_time                           1192.760928           1
 potlok                                733.759896          60
 elmin_all                             700.500548           3
 fft3d_mpi                             202.743842        5776
 fftbrc_mpi                            182.875477        5776
 fftbas_plan_mpi                       182.855765        5776
 map_forward                            71.548419        5862
 dfftw_execute                          56.994091       17328
 m_alltoallv_z                          54.916585        5893
 map_backward                           49.665010        5690
 force_and_stress                       41.841793           3
 map_scatter                            37.030010        5893
 fftwav_mpi                             29.303866         217
 edwav                                  25.900472          54
 map_gather                             25.288687        5893
 ggaall_grid                            14.778727         159
 set_charge                             14.303616          57
 m_sumb_d                               11.781396        3710
 soft_charge                            11.740816          57
 eddav                                  11.032555           5
 rpro_isp                                7.381487          39
 fftext_mpi                              7.249386          79
 eddiag                                  6.805731          32
 kinhamil                                4.676326          52
 hamilt_local                            4.286810          32
 strnlr                                  4.241328           3
 redis_pw                                3.214729         329
 m_alltoall_d                            3.146871        1108
 hamiltmu                                2.731792          20
 eccp                                    2.671009         113
 fornlr                                  2.537697           3
 augmentation_charge                     2.372128          57
 vhamil                                  2.331010          52
 fft_gq                                  1.821427          57
 m_bcast_d                               1.244062         133
 newband                                 1.110815          25
 redis_proj                              0.717100         779
 set_dd_paw                              0.675484          63
 proall                                  0.650336           3
 setdij_                                 0.617519         139
 lincom                                  0.572866         170
 m_bcast_z                               0.550213          51
 orthch                                  0.548666          57
 w1_dscal                                0.530877          27
 orth1                                   0.485878         144
 redis_pw_over_bands                     0.460941          59
 redis_pw_all                            0.460659          54
 pothar                                  0.410977          60
 pw_charge                               0.361163          57
 lapack                                  0.342348          20
 w1_copy                                 0.105781          60
 strelo                                  0.104178           3
 wavpre_noio                             0.090372           2
 ggemm                                   0.082540          20
 forloc                                  0.061715           3
 racc0                                   0.059304          47
 rspher_all                              0.049215          40
 stufak                                  0.047312           3
 strehar                                 0.046250           3
 densta                                  0.044372          68
 inisym                                  0.042547           1
 apply_precond                           0.035960          15
 forhar                                  0.028701           3
 rpro1                                   0.027421          42
 choleski                                0.024354          57
 w1_projall                              0.019469          15
 depsum                                  0.019041          57
 rpromu                                  0.012568          39
 raccmu_                                 0.009881          20
 fewald                                  0.009738           3
 setup_precond                           0.008404           5
 strkin                                  0.007425           3
 overl                                   0.004686         178
 fordep                                  0.004266           3
 rpromu_gemm                             0.003626         117
 brgrid                                  0.002180           1
 rsp                                     0.001444           3
 overl1                                  0.000848          20
 crpa_reader                             0.000257           1
 potlok_metagga                          0.000237          60
 rcp                                     0.000157           3
 set_rsgf_all                            0.000105          63
 truncate_high_frequency_w1              0.000044          25
 phaser                                  0.000040          71
 rotate_active_occupied_orbital          0.000037           3
 posmap                                  0.000019           2
 vectorpot                               0.000015           1
 set_dd_magatom                          0.000012           6
 shift_bands_between_low_high            0.000004           5
 ---------------------------------------------------------------
 
Profiling took   0.145111  0.053525  0.016232  0.015219 seconds
Profiling took   0.234503 seconds
