 vasp.6.3.2 27Jun22 (build Apr 26 2023 23:54:53) gamma-only                     
  
 executed on           IFC15_impi date 2023.05.14  23:03:47
 running    4 mpi-ranks, with    1 threads/rank
 distrk:  each k-point on    4 cores,    1 groups
 distr:  one band on NCORE=   1 cores,    4 groups


--------------------------------------------------------------------------------------------------------


 INCAR:
   ENCUT = 500.000000
   SIGMA = 0.010000
   EDIFF = 1.00e-05
   ALGO = A
   ISMEAR = 0
   NELM = 200
   NSW = 500
   LCHARG = .FALSE.
   LWAVE = .FALSE.
   LREAL = Auto
   IBRION = 2
   EDIFFG = -0.05
   GGA = BF
   LUSE_VDW = .TRUE.
   ZAB_VDW = -1.8867
   LBEEFENS = .TRUE.

 POTCAR:    PAW_PBE C 08Apr2002                   
 POTCAR:    PAW_PBE O 08Apr2002                   
 -----------------------------------------------------------------------------
|                                                                             |
|               ----> ADVICE to this user running VASP <----                  |
|                                                                             |
|     You have switched on vdW-DFT.                                           |
|     This routine was written and supplied by Jiri Klimes. We recommend      |
|     that you carefully read and cite the following publications:            |
|       J. Klimes, D.R. Bowler, A. Michelides                                 |
|          J. Phys.: Cond Matt. 22 022201 (2010)                              |
|       J. Klimes, D.R. Bowler, A. Michelides                                 |
|          Phys. Rev. B. 83, 195131 (2011)                                    |
|     and references therein.                                                 |
|                                                                             |
 -----------------------------------------------------------------------------

 POTCAR:    PAW_PBE C 08Apr2002                   
   SHA256 =  253f7b50bb8d59471dbedb8285d89021f4a42ed1a2c5d38a03a736e69125dd95 C/POTCAR              
   COPYR  = (c) Copyright 08Apr2002 Georg Kresse                                                    
   COPYR  = This file is part of the software VASP. Any use, copying, and all other rights are regul
   COPYR  = If you do not have a valid VASP license, you may not use, copy or distribute this file. 
   VRHFIN =C: s2p2                                                                                  
   LEXCH  = PE                                                                                      
   EATOM  =   147.1560 eV,   10.8157 Ry                                                             
                                                                                                    
   TITEL  = PAW_PBE C 08Apr2002                                                                     
   LULTRA =        F    use ultrasoft PP ?                                                          
   IUNSCR =        1    unscreen: 0-lin 1-nonlin 2-no                                               
   RPACOR =    1.200    partial core radius                                                         
   POMASS =   12.011; ZVAL   =    4.000    mass and valenz                                          
   RCORE  =    1.500    outmost cutoff radius                                                       
   RWIGS  =    1.630; RWIGS  =    0.863    wigner-seitz radius (au A)                               
   ENMAX  =  400.000; ENMIN  =  300.000 eV                                                          
   ICORE  =        2    local potential                                                             
   LCOR   =        T    correct aug charges                                                         
   LPAW   =        T    paw PP                                                                      
   EAUG   =  644.873                                                                                
   DEXC   =    0.000                                                                                
   RMAX   =    1.529    core radius for proj-oper                                                   
   RAUG   =    1.300    factor for augmentation sphere                                              
   RDEP   =    1.501    radius for radial grids                                                     
   RDEPT  =    1.300    core radius for aug-charge                                                  
                                                                                                    
   Atomic configuration                                                                             
    4 entries                                                                                       
     n  l   j            E        occ.                                                              
     1  0  0.50      -273.3789   2.0000                                                             
     2  0  0.50       -13.7508   2.0000                                                             
     2  1  0.50        -5.2854   2.0000                                                             
     3  2  1.50        -5.4423   0.0000                                                             
   Description                                                                                      
     l       E           TYP  RCUT    TYP  RCUT                                                     
     0    -13.7508458     23  1.200                                                                 
     0     -8.2022199     23  1.200                                                                 
     1     -5.2854383     23  1.500                                                                 
     1     34.0145650     23  1.500                                                                 
     2     -5.4423304      7  1.500                                                                 
  local pseudopotential read in
  partial core-charges read in
  partial kinetic energy density read in
  atomic valenz-charges read in
  non local Contribution for L=           0  read in
    real space projection operators read in
  non local Contribution for L=           0  read in
    real space projection operators read in
  non local Contribution for L=           1  read in
    real space projection operators read in
  non local Contribution for L=           1  read in
    real space projection operators read in
    PAW grid and wavefunctions read in
 
   number of l-projection  operators is LMAX  =           4
   number of lm-projection operators is LMMAX =           8
 
 POTCAR:    PAW_PBE O 08Apr2002                   
   SHA256 =  818f92134a0a090dccd8ba1447fa70422a3b330e708bb4f08108d8ae51209ddf O/POTCAR              
   COPYR  = (c) Copyright 08Apr2002 Georg Kresse                                                    
   COPYR  = This file is part of the software VASP. Any use, copying, and all other rights are regul
   COPYR  = If you do not have a valid VASP license, you may not use, copy or distribute this file. 
   VRHFIN =O: s2p4                                                                                  
   LEXCH  = PE                                                                                      
   EATOM  =   432.3788 eV,   31.7789 Ry                                                             
                                                                                                    
   TITEL  = PAW_PBE O 08Apr2002                                                                     
   LULTRA =        F    use ultrasoft PP ?                                                          
   IUNSCR =        1    unscreen: 0-lin 1-nonlin 2-no                                               
   RPACOR =    1.200    partial core radius                                                         
   POMASS =   16.000; ZVAL   =    6.000    mass and valenz                                          
   RCORE  =    1.520    outmost cutoff radius                                                       
   RWIGS  =    1.550; RWIGS  =    0.820    wigner-seitz radius (au A)                               
   ENMAX  =  400.000; ENMIN  =  300.000 eV                                                          
   ICORE  =        2    local potential                                                             
   LCOR   =        T    correct aug charges                                                         
   LPAW   =        T    paw PP                                                                      
   EAUG   =  605.392                                                                                
   DEXC   =    0.000                                                                                
   RMAX   =    1.553    core radius for proj-oper                                                   
   RAUG   =    1.300    factor for augmentation sphere                                              
   RDEP   =    1.550    radius for radial grids                                                     
   RDEPT  =    1.329    core radius for aug-charge                                                  
                                                                                                    
   Atomic configuration                                                                             
    4 entries                                                                                       
     n  l   j            E        occ.                                                              
     1  0  0.50      -514.6923   2.0000                                                             
     2  0  0.50       -23.9615   2.0000                                                             
     2  1  0.50        -9.0305   4.0000                                                             
     3  2  1.50        -9.5241   0.0000                                                             
   Description                                                                                      
     l       E           TYP  RCUT    TYP  RCUT                                                     
     0    -23.9615318     23  1.200                                                                 
     0     -9.5240782     23  1.200                                                                 
     1     -9.0304911     23  1.520                                                                 
     1      8.1634956     23  1.520                                                                 
     2     -9.5240782      7  1.500                                                                 
  local pseudopotential read in
  partial core-charges read in
  partial kinetic energy density read in
  kinetic energy density of atom read in
  atomic valenz-charges read in
  non local Contribution for L=           0  read in
    real space projection operators read in
  non local Contribution for L=           0  read in
    real space projection operators read in
  non local Contribution for L=           1  read in
    real space projection operators read in
  non local Contribution for L=           1  read in
    real space projection operators read in
    PAW grid and wavefunctions read in
 
   number of l-projection  operators is LMAX  =           4
   number of lm-projection operators is LMMAX =           8
 
 -----------------------------------------------------------------------------
|                                                                             |
|               ----> ADVICE to this user running VASP <----                  |
|                                                                             |
|     You have a (more or less) 'small supercell' and for smaller cells       |
|     it is recommended to use the reciprocal-space projection scheme!        |
|     The real-space optimization is not efficient for small cells and it     |
|     is also less accurate ...                                               |
|     Therefore, set LREAL=.FALSE. in the INCAR file.                         |
|                                                                             |
 -----------------------------------------------------------------------------

 Optimization of the real space projectors (new method)

 maximal supplied QI-value         = 25.13
 optimisation between [QCUT,QGAM] = [ 11.31, 22.87] = [ 35.82,146.48] Ry 
 Optimized for a Real-space Cutoff    1.00 Angstroem

   l    n(q)    QCUT    max X(q) W(low)/X(q) W(high)/X(q)  e(spline) 
   0      7    11.310   115.676    0.43E-03    0.13E-02    0.19E-06
   0      7    11.310    87.132    0.43E-03    0.13E-02    0.18E-06
   1      6    11.310     4.429    0.42E-03    0.74E-03    0.11E-06
   1      6    11.310     2.733    0.34E-03    0.55E-03    0.92E-07
 Optimization of the real space projectors (new method)

 maximal supplied QI-value         = 24.76
 optimisation between [QCUT,QGAM] = [ 11.39, 22.77] = [ 36.31,145.25] Ry 
 Optimized for a Real-space Cutoff    1.00 Angstroem

   l    n(q)    QCUT    max X(q) W(low)/X(q) W(high)/X(q)  e(spline) 
   0      7    11.387    20.381    0.39E-03    0.13E-02    0.15E-06
   0      7    11.387    15.268    0.42E-03    0.14E-02    0.17E-06
   1      6    11.387     5.964    0.41E-03    0.11E-02    0.17E-06
   1      6    11.387     5.382    0.39E-03    0.87E-03    0.15E-06
 -----------------------------------------------------------------------------
|                                                                             |
|               ----> ADVICE to this user running VASP <----                  |
|                                                                             |
|     You enforced a specific xc type in the INCAR file but a different       |
|     type was found in the POTCAR file.                                      |
|     I HOPE YOU KNOW WHAT YOU ARE DOING!                                     |
|                                                                             |
 -----------------------------------------------------------------------------

  PAW_PBE C 08Apr2002                   :
 energy of atom  1       EATOM= -147.1560
 kinetic energy error for atom=    0.0076 (will be added to EATOM!!)
  PAW_PBE O 08Apr2002                   :
 energy of atom  2       EATOM= -432.3788
 kinetic energy error for atom=    0.0224 (will be added to EATOM!!)
 
 
 POSCAR: CO
  positions in cartesian coordinates
  No initial velocities read in
 exchange correlation table for  LEXCH =       17
   RHO(1)=    0.500       N(1)  =     2000
   RHO(2)=  100.500       N(2)  =     4000
 


--------------------------------------------------------------------------------------------------------


 ion  position               nearest neighbor table
   1  0.500  0.500  0.500-   2 1.12
   2  0.500  0.500  0.537-   1 1.12
 
  LATTYP: Found a simple orthorhombic cell.
 ALAT       =    22.3170261383
 B/A-ratio  =     1.0606601451
 C/A-ratio  =     1.3442651281
  
  Lattice vectors:
  
 A1 = (   0.0000000000, -22.3170261383,   0.0000000000)
 A2 = (  23.6707801819,   0.0000000000,   0.0000000000)
 A3 = (   0.0000000000,   0.0000000000,  30.0000000000)


Analysis of symmetry for initial positions (statically):
=====================================================================
 Subroutine PRICEL returns:
 Original cell was already a primitive cell.
 

 Routine SETGRP: Setting up the symmetry group for a 
 simple orthorhombic supercell.


 Subroutine GETGRP returns: Found  4 space group operations
 (whereof  4 operations were pure point group operations)
 out of a pool of  8 trial point group operations.


The static configuration has the point symmetry C_2v.


Analysis of symmetry for dynamics (positions and initial velocities):
=====================================================================
 Subroutine PRICEL returns:
 Original cell was already a primitive cell.
 

 Routine SETGRP: Setting up the symmetry group for a 
 simple orthorhombic supercell.


 Subroutine GETGRP returns: Found  4 space group operations
 (whereof  4 operations were pure point group operations)
 out of a pool of  8 trial point group operations.


The dynamic configuration has the point symmetry C_2v.


 Subroutine INISYM returns: Found  4 space group operations
 (whereof  4 operations are pure point group operations),
 and found     1 'primitive' translations


----------------------------------------------------------------------------------------

                                     Primitive cell                                     

  volume of cell :   15847.8426

  direct lattice vectors                    reciprocal lattice vectors
    23.670780182  0.000000000  0.000000000     0.042246178  0.000000000  0.000000000
     0.000000000 22.317026138  0.000000000     0.000000000  0.044808838  0.000000000
     0.000000000  0.000000000 30.000000000     0.000000000  0.000000000  0.033333333

  length of vectors
    23.670780182 22.317026138 30.000000000     0.042246178  0.044808838  0.033333333

  position of ions in fractional coordinates (direct lattice)
     0.500000419  0.499999414  0.500000000
     0.500000419  0.499999414  0.537333333

  ion indices of the primitive-cell ions
   primitive index   ion index
                 1           1
                 2           2

----------------------------------------------------------------------------------------

 
 
 KPOINTS: KPOINTS created by Atomic Simulation Env

Automatic generation of k-mesh.
 Grid dimensions read from file:
 generate k-points for:    1    1    1

 Generating k-lattice:

  Cartesian coordinates                     Fractional coordinates (reciprocal lattice)
     0.042246178  0.000000000  0.000000000     1.000000000  0.000000000  0.000000000
     0.000000000  0.044808838  0.000000000     0.000000000  1.000000000  0.000000000
     0.000000000  0.000000000  0.033333333     0.000000000  0.000000000  1.000000000

  Length of vectors
     0.042246178  0.044808838  0.033333333

  Shift w.r.t. Gamma in fractional coordinates (k-lattice)
     0.000000000  0.000000000  0.000000000

 
 Subroutine IBZKPT returns following result:
 ===========================================
 
 Found      1 irreducible k-points:
 
 Following reciprocal coordinates:
            Coordinates               Weight
  0.000000  0.000000  0.000000      1.000000
 
 Following cartesian coordinates:
            Coordinates               Weight
  0.000000  0.000000  0.000000      1.000000
 


--------------------------------------------------------------------------------------------------------




 Dimension of arrays:
   k-points           NKPTS =      1   k-points in BZ     NKDIM =      1   number of bands    NBANDS=     12
   number of dos      NEDOS =    301   number of ions     NIONS =      2
   non local maximal  LDIM  =      4   non local SUM 2l+1 LMDIM =      8
   total plane-waves  NPLWV = ******
   max r-space proj   IRMAX =    842   max aug-charges    IRDMAX=   2625
   dimension x,y,z NGX =   140 NGY =  126 NGZ =  168
   dimension x,y,z NGXF=   280 NGYF=  252 NGZF=  336
   support grid    NGXF=   280 NGYF=  252 NGZF=  336
   ions per type =               1   1
   NGX,Y,Z   is equivalent  to a cutoff of   9.83,  9.39,  9.31 a.u.
   NGXF,Y,Z  is equivalent  to a cutoff of  19.67, 18.77, 18.62 a.u.

 SYSTEM =  unknown system                          
 POSCAR =  CO                                      

 Startparameter for this run:
   NWRITE =      2    write-flag & timer
   PREC   = normal    normal or accurate (medium, high low for compatibility)
   ISTART =      0    job   : 0-new  1-cont  2-samecut
   ICHARG =      2    charge: 1-file 2-atom 10-const
   ISPIN  =      1    spin polarized calculation?
   LNONCOLLINEAR =      F non collinear calculations
   LSORBIT =      F    spin-orbit coupling
   INIWAV =      1    electr: 0-lowe 1-rand  2-diag
   LASPH  =      F    aspherical Exc in radial PAW
 Electronic Relaxation 1
   ENCUT  =  500.0 eV  36.75 Ry    6.06 a.u.  43.16 40.69 54.70*2*pi/ulx,y,z
   ENINI  =  500.0     initial cutoff
   ENAUG  =  644.9 eV  augmentation charge cutoff
   NELM   =    200;   NELMIN=  2; NELMDL= -5     # of ELM steps 
   EDIFF  = 0.1E-04   stopping-criterion for ELM
   LREAL  =      T    real-space projection
   NLSPLINE    = F    spline interpolate recip. space projectors
   LCOMPAT=      F    compatible to vasp.4.4
   GGA_COMPAT  = T    GGA compatible to vasp.4.4-vasp.4.6
   LMAXPAW     = -100 max onsite density
   LMAXMIX     =    2 max onsite mixed and CHGCAR
   VOSKOWN=      0    Vosko Wilk Nusair interpolation
   ROPT   =   -0.00050  -0.00050
 Ionic relaxation
   EDIFFG = -.5E-01   stopping-criterion for IOM
   NSW    =    500    number of steps for IOM
   NBLOCK =      1;   KBLOCK =    500    inner block; outer block 
   IBRION =      2    ionic relax: 0-MD 1-quasi-New 2-CG
   NFREE  =      1    steps in history (QN), initial steepest desc. (CG)
   ISIF   =      2    stress and relaxation
   IWAVPR =     11    prediction:  0-non 1-charg 2-wave 3-comb
   ISYM   =      2    0-nonsym 1-usesym 2-fastsym
   LCORR  =      T    Harris-Foulkes like correction to forces

   POTIM  = 0.5000    time-step for ionic-motion
   TEIN   =    0.0    initial temperature
   TEBEG  =    0.0;   TEEND  =   0.0 temperature during run
   SMASS  =  -3.00    Nose mass-parameter (am)
   estimated Nose-frequenzy (Omega)   =  0.10E-29 period in steps = 0.13E+47 mass=  -0.128E-25a.u.
   SCALEE = 1.0000    scale energy and forces
   NPACO  =    256;   APACO  = 10.0  distance and # of slots for P.C.
   PSTRESS=    0.0 pullay stress

  Mass of Ions in am
   POMASS =  12.01 16.00
  Ionic Valenz
   ZVAL   =   4.00  6.00
  Atomic Wigner-Seitz radii
   RWIGS  =  -1.00 -1.00
  virtual crystal weights 
   VCA    =   1.00  1.00
   NELECT =      10.0000    total number of electrons
   NUPDOWN=      -1.0000    fix difference up-down

 DOS related values:
   EMIN   =  10.00;   EMAX   =-10.00  energy-range for DOS
   EFERMI =   0.00
   ISMEAR =     0;   SIGMA  =   0.01  broadening in eV -4-tet -1-fermi 0-gaus

 Electronic relaxation 2 (details)
   IALGO  =     58    algorithm
   LDIAG  =      T    sub-space diagonalisation (order eigenvalues)
   LSUBROT=      F    optimize rotation matrix (better conditioning)
   TURBO    =      0    0=normal 1=particle mesh
   IRESTART =      0    0=no restart 2=restart with 2 vectors
   NREBOOT  =      0    no. of reboots
   NMIN     =      0    reboot dimension
   EREF     =   0.00    reference energy to select bands
   IMIX   =      4    mixing-type and parameters
     AMIX     =   0.40;   BMIX     =  1.00
     AMIX_MAG =   1.60;   BMIX_MAG =  1.00
     AMIN     =   0.10
     WC   =   100.;   INIMIX=   1;  MIXPRE=   1;  MAXMIX= -45

 Intra band minimization:
   WEIMIN = 0.0010     energy-eigenvalue tresh-hold
   EBREAK =  0.21E-06  absolut break condition
   DEPER  =   0.30     relativ break condition  

   TIME   =   0.40     timestep for ELM

  volume/ion in A,a.u.               =    7923.92     53473.26
  Fermi-wavevector in a.u.,A,eV,Ry     =   0.140416  0.265349  0.268263  0.019717
  Thomas-Fermi vector in A             =   0.799030
 
 Write flags
   LWAVE        =      F    write WAVECAR
   LDOWNSAMPLE  =      F    k-point downsampling of WAVECAR
   LCHARG       =      F    write CHGCAR
   LVTOT        =      F    write LOCPOT, total local potential
   LVHAR        =      F    write LOCPOT, Hartree potential only
   LELF         =      F    write electronic localiz. function (ELF)
   LORBIT       =      0    0 simple, 1 ext, 2 COOP (PROOUT), +10 PAW based schemes


 Dipole corrections
   LMONO  =      F    monopole corrections only (constant potential shift)
   LDIPOL =      F    correct potential (dipole corrections)
   IDIPOL =      0    1-x, 2-y, 3-z, 4-all directions 
   EPSILON=  1.0000000 bulk dielectric constant

 Exchange correlation treatment:
   GGA     =    BF    GGA type
   LEXCH   =    17    internal setting for exchange type
   LIBXC   =     F    Libxc                    
   VOSKOWN =     0    Vosko Wilk Nusair interpolation
   LHFCALC =     F    Hartree Fock is set to
   LHFONE  =     F    Hartree Fock one center treatment
   AEXX    =    0.0000 exact exchange contribution

 vdW DFT:
   LUSE_VDW   =     T    switch on vdW DFT
   Zab_VDW    =******    correlation parameter
   PARAM1     =0.1234
   PARAM2     =1.0000
   PARAM3     =0.0000
   -- rVV10 --
   BPARAM     = 6.3000
   CPARAM     = 0.0093

 Linear response parameters
   LEPSILON=     F    determine dielectric tensor
   LRPA    =     F    only Hartree local field effects (RPA)
   LNABLA  =     F    use nabla operator in PAW spheres
   LVEL    =     F    velocity operator in full k-point grid
   CSHIFT  =0.1000    complex shift for real part using Kramers Kronig
   OMEGAMAX=  -1.0    maximum frequency
   DEG_THRESHOLD= 0.2000000E-02 threshold for treating states as degnerate
   RTIME   =   -0.100 relaxation time in fs
  (WPLASMAI=    0.000 imaginary part of plasma frequency in eV, 0.658/RTIME)
   DFIELD  = 0.0000000 0.0000000 0.0000000 field for delta impulse in time
 
  Optional k-point grid parameters
   LKPOINTS_OPT  =     F    use optional k-point grid
   KPOINTS_OPT_MODE=     1    mode for optional k-point grid
 
 Orbital magnetization related:
   ORBITALMAG=     F  switch on orbital magnetization
   LCHIMAG   =     F  perturbation theory with respect to B field
   DQ        =  0.001000  dq finite difference perturbation B field
   LLRAUG    =     F  two centre corrections for induced B field



--------------------------------------------------------------------------------------------------------


 conjugate gradient relaxation of ions
 charge density and potential will be updated during run
 non-spin polarized calculation
 Conjugate gradient for all bands (Freysoldt, et al. PRB 79, 241103 (2009))
 preconditioned conjugated gradient                                        
 perform sub-space diagonalisation
    before iterative eigenvector-optimisation
 modified Broyden-mixing scheme, WC =      100.0
 initial mixing is a Kerker type mixing with AMIX =  0.4000 and BMIX =      1.0000
 Hartree-type preconditioning will be used
 using additional bands            7
 real space projection scheme for non local part
 use partial core corrections
 no Harris-corrections to forces 
 use gradient corrections 
 use of overlap-Matrix (Vanderbilt PP)
 Gauss-broadening in eV      SIGMA  =   0.01


--------------------------------------------------------------------------------------------------------


  energy-cutoff  :      500.00
  volume of cell :    15847.84
      direct lattice vectors                 reciprocal lattice vectors
    23.670780182  0.000000000  0.000000000     0.042246178  0.000000000  0.000000000
     0.000000000 22.317026138  0.000000000     0.000000000  0.044808838  0.000000000
     0.000000000  0.000000000 30.000000000     0.000000000  0.000000000  0.033333333

  length of vectors
    23.670780182 22.317026138 30.000000000     0.042246178  0.044808838  0.033333333


 
 k-points in units of 2pi/SCALE and weight: KPOINTS created by Atomic Simulation Env
   0.00000000  0.00000000  0.00000000       1.000
 
 k-points in reciprocal lattice and weights: KPOINTS created by Atomic Simulation Env
   0.00000000  0.00000000  0.00000000       1.000
 
 position of ions in fractional coordinates (direct lattice) 
   0.50000042  0.49999941  0.50000000
   0.50000042  0.49999941  0.53733333
 
 position of ions in cartesian coordinates  (Angst):
  11.83540000 11.15850000 15.00000000
  11.83540000 11.15850000 16.12000000
 


--------------------------------------------------------------------------------------------------------


 use serial FFT for orbitals x direction half grid
 k-point   1 :   0.0000 0.0000 0.0000  plane waves:  201172

 maximum and minimum number of plane-waves per node :    201172   201172

 maximum number of plane-waves:    201172
 maximum index in each direction: 
   IXMAX=   43   IYMAX=   40   IZMAX=   54
   IXMIN=    0   IYMIN=  -40   IZMIN=  -54


 serial   3D FFT for wavefunctions
 parallel 3D FFT for charge:
    minimum data exchange during FFTs selected (reduces bandwidth)


 total amount of memory used by VASP MPI-rank0   722960. kBytes
=======================================================================

   base      :      30000. kBytes
   nonlr-proj:        107. kBytes
   fftplans  :     211734. kBytes
   grid      :     452148. kBytes
   one-center:          3. kBytes
   wavefun   :      28968. kBytes
 
     INWAV:  cpu time      0.0001: real time      0.0001
 Broyden mixing: mesh for mixing (old mesh)
   NGX = 87   NGY = 81   NGZ =109
  (NGX  =280   NGY  =252   NGZ  =336)
  gives a total of 768123 points

 initial charge density was supplied:
 charge density of overlapping atoms calculated
 number of electron      10.0000000 magnetization 
 keeping initial charge density in first step


--------------------------------------------------------------------------------------------------------


 Maximum index for non-local projection operator          771
 Maximum index for augmentation-charges          586 (set IRDMAX)


--------------------------------------------------------------------------------------------------------


 First call to EWALD:  gamma=   0.071
 Maximum number of real-space cells 3x 3x 2
 Maximum number of reciprocal cells 3x 2x 3

    FEWALD:  cpu time      0.0067: real time      0.0067


--------------------------------------- Iteration      1(   1)  ---------------------------------------


    POTLOK:  cpu time  43956.0803: real time  43996.4099
    SETDIJ:  cpu time      0.0136: real time      0.0138
    TRIAL :  cpu time      2.8407: real time      2.9287
    CORREC:  cpu time      0.0003: real time      0.0003
    --------------------------------------------
      LOOP:  cpu time  43958.9586: real time  43999.3785

 eigenvalue-minimisations  :    40
 total energy-change (2. order) : 0.9914961E+02  (-0.9933840E+02)
 number of electron      10.0000000 magnetization 
 augmentation part       10.0000000 magnetization 

 Free energy of the ion-electron system (eV)
  ---------------------------------------------------
  alpha Z        PSCENC =         0.02757205
  Ewald energy   TEWEN  =       229.35991584
  -Hartree energ DENC   =      -686.16603704
  -exchange      EXHF   =         0.00000000
  -V(xc)+E(xc)   XCENC  =        39.76938922
  PAW double counting   =       455.07029581     -457.86403136
  entropy T*S    EENTRO =        -0.00000000
  eigenvalues    EBANDS =       -68.38335239
  atomic energy  EATOM  =       587.33585529
  ---------------------------------------------------
  free energy    TOTEN  =        99.14960743 eV

  energy without entropy =       99.14960743  energy(sigma->0) =       99.14960743


--------------------------------------------------------------------------------------------------------




--------------------------------------- Iteration      1(   2)  ---------------------------------------


    TRIAL :  cpu time      2.4998: real time      2.5024
    CORREC:  cpu time      0.0002: real time      0.0002
    --------------------------------------------
      LOOP:  cpu time      2.5033: real time      2.5062

 eigenvalue-minimisations  :    36
 total energy-change (2. order) :-0.6621017E+02  (-0.6596633E+02)
 number of electron      10.0000000 magnetization 
 augmentation part       10.0000000 magnetization 

 Free energy of the ion-electron system (eV)
  ---------------------------------------------------
  alpha Z        PSCENC =         0.02757205
  Ewald energy   TEWEN  =       229.35991584
  -Hartree energ DENC   =      -686.16603704
  -exchange      EXHF   =         0.00000000
  -V(xc)+E(xc)   XCENC  =        39.76938922
  PAW double counting   =       455.07029581     -457.86403136
  entropy T*S    EENTRO =        -0.00000000
  eigenvalues    EBANDS =      -134.59351940
  atomic energy  EATOM  =       587.33585529
  ---------------------------------------------------
  free energy    TOTEN  =        32.93944042 eV

  energy without entropy =       32.93944042  energy(sigma->0) =       32.93944042


--------------------------------------------------------------------------------------------------------




--------------------------------------- Iteration      1(   3)  ---------------------------------------


    TRIAL :  cpu time      2.7091: real time      2.7119
    CORREC:  cpu time      0.0002: real time      0.0002
    --------------------------------------------
      LOOP:  cpu time      2.7107: real time      2.7148

 eigenvalue-minimisations  :    40
 total energy-change (2. order) :-0.4134445E+02  (-0.4115350E+02)
 number of electron      10.0000000 magnetization 
 augmentation part       10.0000000 magnetization 

 Free energy of the ion-electron system (eV)
  ---------------------------------------------------
  alpha Z        PSCENC =         0.02757205
  Ewald energy   TEWEN  =       229.35991584
  -Hartree energ DENC   =      -686.16603704
  -exchange      EXHF   =         0.00000000
  -V(xc)+E(xc)   XCENC  =        39.76938922
  PAW double counting   =       455.07029581     -457.86403136
  entropy T*S    EENTRO =        -0.00000000
  eigenvalues    EBANDS =      -175.93796593
  atomic energy  EATOM  =       587.33585529
  ---------------------------------------------------
  free energy    TOTEN  =        -8.40500611 eV

  energy without entropy =       -8.40500611  energy(sigma->0) =       -8.40500611


--------------------------------------------------------------------------------------------------------




--------------------------------------- Iteration      1(   4)  ---------------------------------------


    TRIAL :  cpu time      2.9304: real time      2.9332
    CORREC:  cpu time      0.0002: real time      0.0002
    --------------------------------------------
      LOOP:  cpu time      2.9334: real time      2.9364

 eigenvalue-minimisations  :    44
 total energy-change (2. order) :-0.4661571E+01  (-0.4661452E+01)
 number of electron      10.0000000 magnetization 
 augmentation part       10.0000000 magnetization 

 Free energy of the ion-electron system (eV)
  ---------------------------------------------------
  alpha Z        PSCENC =         0.02757205
  Ewald energy   TEWEN  =       229.35991584
  -Hartree energ DENC   =      -686.16603704
  -exchange      EXHF   =         0.00000000
  -V(xc)+E(xc)   XCENC  =        39.76938922
  PAW double counting   =       455.07029581     -457.86403136
  entropy T*S    EENTRO =        -0.00000000
  eigenvalues    EBANDS =      -180.59953742
  atomic energy  EATOM  =       587.33585529
  ---------------------------------------------------
  free energy    TOTEN  =       -13.06657760 eV

  energy without entropy =      -13.06657760  energy(sigma->0) =      -13.06657760


--------------------------------------------------------------------------------------------------------




--------------------------------------- Iteration      1(   5)  ---------------------------------------


    TRIAL :  cpu time      2.7076: real time      2.7103
    CORREC:  cpu time      0.0002: real time      0.0002
    CHARGE:  cpu time      1.6418: real time      1.6435
    --------------------------------------------
      LOOP:  cpu time      4.3511: real time      4.3567

 eigenvalue-minimisations  :    40
 total energy-change (2. order) :-0.2863752E-01  (-0.2863738E-01)
 number of electron       9.9999993 magnetization 
 augmentation part        0.7591936 magnetization 

 Free energy of the ion-electron system (eV)
  ---------------------------------------------------
  alpha Z        PSCENC =         0.02757205
  Ewald energy   TEWEN  =       229.35991584
  -Hartree energ DENC   =      -686.16603704
  -exchange      EXHF   =         0.00000000
  -V(xc)+E(xc)   XCENC  =        39.76938922
  PAW double counting   =       455.07029581     -457.86403136
  entropy T*S    EENTRO =        -0.00000000
  eigenvalues    EBANDS =      -180.62817494
  atomic energy  EATOM  =       587.33585529
  ---------------------------------------------------
  free energy    TOTEN  =       -13.09521513 eV

  energy without entropy =      -13.09521513  energy(sigma->0) =      -13.09521513


--------------------------------------------------------------------------------------------------------




--------------------------------------- Iteration      1(   6)  ---------------------------------------


    POTLOK:  cpu time    195.3712: real time    195.5665
    SETDIJ:  cpu time      0.0083: real time      0.0083
    TRIAL :  cpu time      1.1235: real time      1.1283
    CORREC:  cpu time    210.7243: real time    210.9408
    CHARGE:  cpu time      1.6266: real time      1.6284
    --------------------------------------------
      LOOP:  cpu time    408.8560: real time    409.2756

 eigenvalue-minimisations  :     0
 total energy-change (2. order) : 0.2468420E+01  (-0.1173256E+01)
 number of electron       9.9999992 magnetization 
 augmentation part        0.6986862 magnetization 

 Free energy of the ion-electron system (eV)
  ---------------------------------------------------
  alpha Z        PSCENC =         0.02757205
  Ewald energy   TEWEN  =       229.35991584
  -Hartree energ DENC   =      -743.02256049
  -exchange      EXHF   =         0.00000000
  -V(xc)+E(xc)   XCENC  =        43.00591232
  PAW double counting   =       912.96305341     -916.18474081
  entropy T*S    EENTRO =        -0.00000000
  eigenvalues    EBANDS =      -124.11180256
  atomic energy  EATOM  =       587.33585529
  ---------------------------------------------------
  free energy    TOTEN  =       -10.62679493 eV

  energy without entropy =      -10.62679493  energy(sigma->0) =      -10.62679493


--------------------------------------------------------------------------------------------------------




--------------------------------------- Iteration      1(   7)  ---------------------------------------


    POTLOK:  cpu time    208.3987: real time    208.6055
    SETDIJ:  cpu time      0.0105: real time      0.0104
    TRIAL :  cpu time      1.1161: real time      1.1178
    CORREC:  cpu time    210.3696: real time    210.5785
    CHARGE:  cpu time      1.6062: real time      1.6079
    --------------------------------------------
      LOOP:  cpu time    421.5039: real time    421.9245

 eigenvalue-minimisations  :     0
 total energy-change (2. order) :-0.1188766E+01  (-0.1455987E+00)
 number of electron       9.9999992 magnetization 
 augmentation part        0.6766044 magnetization 

 Free energy of the ion-electron system (eV)
  ---------------------------------------------------
  alpha Z        PSCENC =         0.02757205
  Ewald energy   TEWEN  =       229.35991584
  -Hartree energ DENC   =      -714.55637168
  -exchange      EXHF   =         0.00000000
  -V(xc)+E(xc)   XCENC  =        41.40415694
  PAW double counting   =       891.34764996     -894.34179478
  entropy T*S    EENTRO =        -0.00000000
  eigenvalues    EBANDS =      -152.39254441
  atomic energy  EATOM  =       587.33585529
  ---------------------------------------------------
  free energy    TOTEN  =       -11.81556079 eV

  energy without entropy =      -11.81556079  energy(sigma->0) =      -11.81556079


--------------------------------------------------------------------------------------------------------




--------------------------------------- Iteration      1(   8)  ---------------------------------------


    POTLOK:  cpu time    208.7793: real time    208.9868
    SETDIJ:  cpu time      0.0109: real time      0.0109
    TRIAL :  cpu time      1.1191: real time      1.1203
    CORREC:  cpu time    210.9396: real time    211.1487
    CHARGE:  cpu time      1.6047: real time      1.6063
    --------------------------------------------
      LOOP:  cpu time    422.4570: real time    422.8779

 eigenvalue-minimisations  :     0
 total energy-change (2. order) :-0.1455717E+00  (-0.5272481E-01)
 number of electron       9.9999992 magnetization 
 augmentation part        0.6723669 magnetization 

 Free energy of the ion-electron system (eV)
  ---------------------------------------------------
  alpha Z        PSCENC =         0.02757205
  Ewald energy   TEWEN  =       229.35991584
  -Hartree energ DENC   =      -712.20109236
  -exchange      EXHF   =         0.00000000
  -V(xc)+E(xc)   XCENC  =        41.27945055
  PAW double counting   =       901.83420316     -904.68360952
  entropy T*S    EENTRO =        -0.00000000
  eigenvalues    EBANDS =      -154.91342755
  atomic energy  EATOM  =       587.33585529
  ---------------------------------------------------
  free energy    TOTEN  =       -11.96113253 eV

  energy without entropy =      -11.96113253  energy(sigma->0) =      -11.96113253


--------------------------------------------------------------------------------------------------------




--------------------------------------- Iteration      1(   9)  ---------------------------------------


    POTLOK:  cpu time    208.5415: real time    208.7483
    SETDIJ:  cpu time      0.0103: real time      0.0104
    TRIAL :  cpu time      1.1127: real time      1.1145
    CORREC:  cpu time    209.9086: real time    210.1172
    CHARGE:  cpu time      1.6055: real time      1.6066
    --------------------------------------------
      LOOP:  cpu time    421.1839: real time    421.6023

 eigenvalue-minimisations  :     0
 total energy-change (2. order) :-0.5271269E-01  (-0.1368411E-01)
 number of electron       9.9999992 magnetization 
 augmentation part        0.6726424 magnetization 

 Free energy of the ion-electron system (eV)
  ---------------------------------------------------
  alpha Z        PSCENC =         0.02757205
  Ewald energy   TEWEN  =       229.35991584
  -Hartree energ DENC   =      -711.82943052
  -exchange      EXHF   =         0.00000000
  -V(xc)+E(xc)   XCENC  =        41.27005738
  PAW double counting   =       911.77657457     -914.58764403
  entropy T*S    EENTRO =        -0.00000000
  eigenvalues    EBANDS =      -155.36674581
  atomic energy  EATOM  =       587.33585529
  ---------------------------------------------------
  free energy    TOTEN  =       -12.01384522 eV

  energy without entropy =      -12.01384522  energy(sigma->0) =      -12.01384522


--------------------------------------------------------------------------------------------------------




--------------------------------------- Iteration      1(  10)  ---------------------------------------


    POTLOK:  cpu time    209.6103: real time    209.8203
    SETDIJ:  cpu time      0.0105: real time      0.0105
    TRIAL :  cpu time      1.1148: real time      1.1157
    CORREC:  cpu time    209.0649: real time    209.2738
    CHARGE:  cpu time      1.6033: real time      1.6044
    --------------------------------------------
      LOOP:  cpu time    421.4080: real time    421.8290

 eigenvalue-minimisations  :     0
 total energy-change (2. order) :-0.1367459E-01  (-0.5541683E-02)
 number of electron       9.9999992 magnetization 
 augmentation part        0.6725987 magnetization 

 Free energy of the ion-electron system (eV)
  ---------------------------------------------------
  alpha Z        PSCENC =         0.02757205
  Ewald energy   TEWEN  =       229.35991584
  -Hartree energ DENC   =      -711.51701183
  -exchange      EXHF   =         0.00000000
  -V(xc)+E(xc)   XCENC  =        41.26012702
  PAW double counting   =       916.03865088     -918.84764859
  entropy T*S    EENTRO =        -0.00000000
  eigenvalues    EBANDS =      -155.68498048
  atomic energy  EATOM  =       587.33585529
  ---------------------------------------------------
  free energy    TOTEN  =       -12.02751981 eV

  energy without entropy =      -12.02751981  energy(sigma->0) =      -12.02751981


--------------------------------------------------------------------------------------------------------




--------------------------------------- Iteration      1(  11)  ---------------------------------------


    POTLOK:  cpu time    204.4122: real time    204.6150
    SETDIJ:  cpu time      0.0092: real time      0.0092
    TRIAL :  cpu time      1.1091: real time      1.1101
    CORREC:  cpu time    201.4825: real time    201.6822
    CHARGE:  cpu time      1.6020: real time      1.6038
    --------------------------------------------
      LOOP:  cpu time    408.6193: real time    409.0261

 eigenvalue-minimisations  :     0
 total energy-change (2. order) :-0.5533535E-02  (-0.2203513E-02)
 number of electron       9.9999992 magnetization 
 augmentation part        0.6727441 magnetization 

 Free energy of the ion-electron system (eV)
  ---------------------------------------------------
  alpha Z        PSCENC =         0.02757205
  Ewald energy   TEWEN  =       229.35991584
  -Hartree energ DENC   =      -711.29037314
  -exchange      EXHF   =         0.00000000
  -V(xc)+E(xc)   XCENC  =        41.25053912
  PAW double counting   =       917.97723805     -920.78414476
  entropy T*S    EENTRO =        -0.00000000
  eigenvalues    EBANDS =      -155.90965580
  atomic energy  EATOM  =       587.33585529
  ---------------------------------------------------
  free energy    TOTEN  =       -12.03305334 eV

  energy without entropy =      -12.03305334  energy(sigma->0) =      -12.03305334


--------------------------------------------------------------------------------------------------------




--------------------------------------- Iteration      1(  12)  ---------------------------------------


    POTLOK:  cpu time    200.2038: real time    200.4030
    SETDIJ:  cpu time      0.0104: real time      0.0104
    TRIAL :  cpu time      1.1061: real time      1.1070
    CORREC:  cpu time    199.5370: real time    199.7368
    CHARGE:  cpu time      1.6021: real time      1.6038
    --------------------------------------------
      LOOP:  cpu time    402.4630: real time    402.8658

 eigenvalue-minimisations  :     0
 total energy-change (2. order) :-0.2199853E-02  (-0.8004723E-03)
 number of electron       9.9999992 magnetization 
 augmentation part        0.6728509 magnetization 

 Free energy of the ion-electron system (eV)
  ---------------------------------------------------
  alpha Z        PSCENC =         0.02757205
  Ewald energy   TEWEN  =       229.35991584
  -Hartree energ DENC   =      -711.12344276
  -exchange      EXHF   =         0.00000000
  -V(xc)+E(xc)   XCENC  =        41.24009465
  PAW double counting   =       918.29054882     -921.09887421
  entropy T*S    EENTRO =        -0.00000000
  eigenvalues    EBANDS =      -156.06692287
  atomic energy  EATOM  =       587.33585529
  ---------------------------------------------------
  free energy    TOTEN  =       -12.03525319 eV

  energy without entropy =      -12.03525319  energy(sigma->0) =      -12.03525319


--------------------------------------------------------------------------------------------------------




--------------------------------------- Iteration      1(  13)  ---------------------------------------


    POTLOK:  cpu time    196.2835: real time    196.4777
    SETDIJ:  cpu time      0.0107: real time      0.0107
    TRIAL :  cpu time      1.1078: real time      1.1095
    CORREC:  cpu time    196.5305: real time    196.7267
    CHARGE:  cpu time      1.6003: real time      1.6021
    --------------------------------------------
      LOOP:  cpu time    395.5352: real time    395.9307

 eigenvalue-minimisations  :     0
 total energy-change (2. order) :-0.7997312E-03  (-0.2318409E-03)
 number of electron       9.9999992 magnetization 
 augmentation part        0.6728447 magnetization 

 Free energy of the ion-electron system (eV)
  ---------------------------------------------------
  alpha Z        PSCENC =         0.02757205
  Ewald energy   TEWEN  =       229.35991584
  -Hartree energ DENC   =      -711.03962514
  -exchange      EXHF   =         0.00000000
  -V(xc)+E(xc)   XCENC  =        41.23381222
  PAW double counting   =       917.91668528     -920.72712306
  entropy T*S    EENTRO =        -0.00000000
  eigenvalues    EBANDS =      -156.14314541
  atomic energy  EATOM  =       587.33585529
  ---------------------------------------------------
  free energy    TOTEN  =       -12.03605293 eV

  energy without entropy =      -12.03605293  energy(sigma->0) =      -12.03605293


--------------------------------------------------------------------------------------------------------




--------------------------------------- Iteration      1(  14)  ---------------------------------------


    POTLOK:  cpu time    196.5604: real time    196.7570
    SETDIJ:  cpu time      0.0104: real time      0.0104
    TRIAL :  cpu time      1.1084: real time      1.1092
    CORREC:  cpu time    198.2765: real time    198.4735
    CHARGE:  cpu time      1.6039: real time      1.6057
    --------------------------------------------
      LOOP:  cpu time    397.5631: real time    397.9630

 eigenvalue-minimisations  :     0
 total energy-change (2. order) :-0.2317498E-03  (-0.5814003E-04)
 number of electron       9.9999992 magnetization 
 augmentation part        0.6728076 magnetization 

 Free energy of the ion-electron system (eV)
  ---------------------------------------------------
  alpha Z        PSCENC =         0.02757205
  Ewald energy   TEWEN  =       229.35991584
  -Hartree energ DENC   =      -711.02549535
  -exchange      EXHF   =         0.00000000
  -V(xc)+E(xc)   XCENC  =        41.23251537
  PAW double counting   =       917.46401214     -920.27507905
  entropy T*S    EENTRO =        -0.00000000
  eigenvalues    EBANDS =      -156.15558097
  atomic energy  EATOM  =       587.33585529
  ---------------------------------------------------
  free energy    TOTEN  =       -12.03628468 eV

  energy without entropy =      -12.03628468  energy(sigma->0) =      -12.03628468


--------------------------------------------------------------------------------------------------------




--------------------------------------- Iteration      1(  15)  ---------------------------------------


    POTLOK:  cpu time    195.5216: real time    195.7174
    SETDIJ:  cpu time      0.0103: real time      0.0103
    TRIAL :  cpu time      1.1072: real time      1.1082
    CORREC:  cpu time    197.2679: real time    197.4643
    CHARGE:  cpu time      1.6015: real time      1.6032
    --------------------------------------------
      LOOP:  cpu time    395.5130: real time    395.9087

 eigenvalue-minimisations  :     0
 total energy-change (2. order) :-0.5813280E-04  (-0.1355020E-04)
 number of electron       9.9999992 magnetization 
 augmentation part        0.6727719 magnetization 

 Free energy of the ion-electron system (eV)
  ---------------------------------------------------
  alpha Z        PSCENC =         0.02757205
  Ewald energy   TEWEN  =       229.35991584
  -Hartree energ DENC   =      -711.01836126
  -exchange      EXHF   =         0.00000000
  -V(xc)+E(xc)   XCENC  =        41.23208106
  PAW double counting   =       917.10921939     -919.92030555
  entropy T*S    EENTRO =        -0.00000000
  eigenvalues    EBANDS =      -156.16231963
  atomic energy  EATOM  =       587.33585529
  ---------------------------------------------------
  free energy    TOTEN  =       -12.03634281 eV

  energy without entropy =      -12.03634281  energy(sigma->0) =      -12.03634281


--------------------------------------------------------------------------------------------------------




--------------------------------------- Iteration      1(  16)  ---------------------------------------


    POTLOK:  cpu time    196.5934: real time    196.7901
    SETDIJ:  cpu time      0.0107: real time      0.0107
    TRIAL :  cpu time      1.1103: real time      1.1120
    CORREC:  cpu time    198.6408: real time    198.8390
    CHARGE:  cpu time      1.6051: real time      1.6068
    --------------------------------------------
      LOOP:  cpu time    397.9635: real time    398.3619

 eigenvalue-minimisations  :     0
 total energy-change (2. order) :-0.1354133E-04  (-0.3620173E-05)
 number of electron       9.9999992 magnetization 
 augmentation part        0.6727665 magnetization 

 Free energy of the ion-electron system (eV)
  ---------------------------------------------------
  alpha Z        PSCENC =         0.02757205
  Ewald energy   TEWEN  =       229.35991584
  -Hartree energ DENC   =      -711.01426693
  -exchange      EXHF   =         0.00000000
  -V(xc)+E(xc)   XCENC  =        41.23186648
  PAW double counting   =       916.89301254     -919.70400138
  entropy T*S    EENTRO =        -0.00000000
  eigenvalues    EBANDS =      -156.16631025
  atomic energy  EATOM  =       587.33585529
  ---------------------------------------------------
  free energy    TOTEN  =       -12.03635635 eV

  energy without entropy =      -12.03635635  energy(sigma->0) =      -12.03635635


--------------------------------------------------------------------------------------------------------




--------------------------------------- Iteration      1(  17)  ---------------------------------------


    POTLOK:  cpu time    195.5807: real time    195.7777
    SETDIJ:  cpu time      0.0091: real time      0.0091
    TRIAL :  cpu time      1.1044: real time      1.1054
    CORREC:  cpu time    196.7098: real time    196.9067
    EDDIAG:  cpu time      0.4351: real time      0.4352
    CHARGE:  cpu time      1.6031: real time      1.6049
    --------------------------------------------
      LOOP:  cpu time    395.4454: real time    395.8420

 eigenvalue-minimisations  :     0
 total energy-change (2. order) :-0.3608333E-05  (-0.1104310E-05)
 number of electron       9.9999992 magnetization 
 augmentation part        0.6727708 magnetization 

 Free energy of the ion-electron system (eV)
  ---------------------------------------------------
  alpha Z        PSCENC =         0.02757205
  Ewald energy   TEWEN  =       229.35991584
  -Hartree energ DENC   =      -711.01974213
  -exchange      EXHF   =         0.00000000
  -V(xc)+E(xc)   XCENC  =        41.23215955
  PAW double counting   =       916.77489519     -919.58585323
  entropy T*S    EENTRO =        -0.00000000
  eigenvalues    EBANDS =      -156.16116252
  atomic energy  EATOM  =       587.33585529
  ---------------------------------------------------
  free energy    TOTEN  =       -12.03635996 eV

  energy without entropy =      -12.03635996  energy(sigma->0) =      -12.03635996


--------------------------------------------------------------------------------------------------------


  average scaling for gradient   1.5855


 average (electrostatic) potential at core
  the test charge radii are     0.6991  0.7215
  (the norm of the test charge is              1.0000)
       1 -62.0602       2 -84.1603
 
 
 
 E-fermi :  -9.2999     XC(G=0):  -0.0576     alpha+bet : -0.0110

 Fermi energy:        -9.2998895685

 k-point     1 :       0.0000    0.0000    0.0000
  band No.  band energies     occupation 
      1     -29.9938      2.00000
      2     -14.3674      2.00000
      3     -12.1757      2.00000
      4     -12.1755      2.00000
      5      -9.3678      2.00000
      6      -2.1952      0.00000
      7      -2.1952      0.00000
      8      -0.3293      0.00000
      9       0.0355      0.00000
     10       0.1447      0.00000
     11       0.2289      0.00000
     12       0.2560      0.00000


--------------------------------------------------------------------------------------------------------


 soft charge-density along one line, spin component           1
         0         1         2         3         4         5         6         7         8         9
 total charge-density along one line
 
 pseudopotential strength for first ion, spin component:           1
 10.458  13.914  -0.000   0.025   0.000   0.000  -0.083  -0.000
 13.914  18.511  -0.000   0.033   0.000   0.000  -0.110  -0.000
 -0.000  -0.000  -4.427   0.000  -0.000   8.659  -0.000   0.000
  0.025   0.033   0.000  -4.451  -0.000  -0.000   8.689   0.000
  0.000   0.000  -0.000  -0.000  -4.427   0.000   0.000   8.659
  0.000   0.000   8.659  -0.000   0.000 -19.083   0.000  -0.000
 -0.083  -0.110  -0.000   8.689   0.000   0.000 -19.111  -0.000
 -0.000  -0.000   0.000   0.000   8.659  -0.000  -0.000 -19.083
 total augmentation occupancy for first ion, spin component:           1
  8.787  -4.127   0.000   2.289   0.000   0.000   0.426   0.000
 -4.127   2.303   0.000  -1.727   0.000   0.000  -0.261   0.000
  0.000   0.000   0.852   0.000   0.000   0.066   0.000   0.000
  2.289  -1.727   0.000   2.319   0.000   0.000   0.221   0.000
  0.000   0.000   0.000   0.000   0.852   0.000   0.000   0.066
  0.000   0.000   0.066   0.000   0.000   0.005   0.000   0.000
  0.426  -0.261   0.000   0.221   0.000   0.000   0.031   0.000
  0.000   0.000   0.000   0.000   0.066   0.000   0.000   0.005


------------------------ aborting loop because EDIFF is reached ----------------------------------------


    FORLOC:  cpu time      0.3494: real time      0.3494
    FORNL :  cpu time      0.5930: real time      0.5940
    STRESS:  cpu time      2.1140: real time      2.1159
    FORCOR:  cpu time    192.7909: real time    192.9828
    OFIELD:  cpu time      0.0082: real time      0.0082

  FORCE on cell =-STRESS in cart. coord.  units (eV):
  Direction    XX          YY          ZZ          XY          YZ          ZX
  --------------------------------------------------------------------------------------
  Alpha Z     0.02757     0.02757     0.02757
  Ewald     -20.98518   -16.16226   266.50742    -0.00000     0.00000     0.00000
  Hartree   206.81776   211.61134   292.59172    -0.00000    -0.00014     0.00011
  E(xc)     -46.69453   -46.69451   -44.75528    -0.00000    -0.00000     0.00000
  Local    -320.28215  -329.89717  -664.75405     0.00000    -0.00029     0.00022
  n-local   -18.10580   -18.04884   -29.45312     0.00000    -0.00017     0.00011
  augment     6.29815     6.29628     5.58913    -0.00000    -0.00001     0.00002
  Kinetic   192.83615   192.83728   177.24358    -0.00002     0.00043    -0.00032
  Fock        0.00000     0.00000     0.00000     0.00000     0.00000     0.00000
  -------------------------------------------------------------------------------------
  Total      -0.08802    -0.03032     2.99696     0.00000     0.00000     0.00000
  in kB      -0.00890    -0.00307     0.30299     0.00000     0.00000     0.00000
  external pressure =        0.10 kB  Pullay stress =        0.00 kB


 VOLUME and BASIS-vectors are now :
 -----------------------------------------------------------------------------
  energy-cutoff  :      500.00
  volume of cell :    15847.84
      direct lattice vectors                 reciprocal lattice vectors
    23.670780182  0.000000000  0.000000000     0.042246178  0.000000000  0.000000000
     0.000000000 22.317026138  0.000000000     0.000000000  0.044808838  0.000000000
     0.000000000  0.000000000 30.000000000     0.000000000  0.000000000  0.033333333

  length of vectors
    23.670780182 22.317026138 30.000000000     0.042246178  0.044808838  0.033333333


 FORCES acting on ions:
    Electron-Ion                     Ewald-Force                    Non-Local-Force
 -----------------------------------------------------------------------------------------------
   -.580E-02 0.764E-02 0.245E+03   0.135E-17 0.163E-16 -.275E+03   0.544E-20 -.259E-19 0.281E+02
   -.156E-01 0.205E-01 -.212E+03   -.144E-16 -.898E-17 0.275E+03   -.651E-19 0.150E-19 -.612E+02
 -----------------------------------------------------------------------------------------------
   -.214E-01 0.282E-01 0.331E+02   -.130E-16 0.734E-17 0.000E+00   -.597E-19 -.109E-19 -.331E+02
 
 
 POSITION                                       TOTAL-FORCE (eV/Angst)
 -----------------------------------------------------------------------------------
     11.83540     11.15850     15.00000        -0.000000     -0.000000     -2.723144
     11.83540     11.15850     16.12000         0.000000      0.000000      2.723144
 -----------------------------------------------------------------------------------
    total drift:                               -0.021366      0.028179      0.022248


--------------------------------------------------------------------------------------------------------



  FREE ENERGIE OF THE ION-ELECTRON SYSTEM (eV)
  ---------------------------------------------------
  free  energy   TOTEN  =       -12.03635996 eV

  energy  without entropy=      -12.03635996  energy(sigma->0) =      -12.03635996
 


--------------------------------------------------------------------------------------------------------


 BEEFens 2000 ensemble energies
             -0.104111329399748E+02
             -0.262171992796169E+00
             -0.228590675311261E+01
              0.728824667505844E+01
             -0.361508924745439E+01
             -0.284996235644525E+01
             -0.725922533188488E+01
             -0.157195362817730E+02
             -0.647560175850375E+01
             -0.701859092442446E+01
             -0.574389211740704E+01
              0.466586546534653E+00
              0.358716280211887E+00
              0.135520405291786E+00
              0.565886836421303E+00
              0.780307448032158E+01
             -0.362163966314523E+01
             -0.248505049570977E+01
              0.362706005434629E+01
             -0.184729189656739E+02
              0.909881066884353E+01
             -0.371234094922126E+01
             -0.103271235966165E+01
             -0.171561308619636E+01
             -0.181976033418238E+00
             -0.108539624205530E+01
              0.149175351705385E+02
             -0.298959780458644E+01
             -0.143668181061129E+01
             -0.892064646611352E+01
              0.124777260820985E+02
             -0.165570812510163E+01
             -0.683173671623639E+01
              0.339531144149786E+01
             -0.492628939486096E+00
              0.397321028993201E+01
             -0.219730079577339E+00
              0.571345196945316E+00
              0.548127882736672E+01
             -0.170743395334059E+02
              0.927444628675435E+01
              0.186446268833631E+01
             -0.127831870315399E+01
             -0.519815952844874E+01
              0.203796792788750E+01
             -0.251700261729806E+01
              0.794331017750743E+01
              0.600228978235506E+01
             -0.400943275164407E+01
             -0.508019773909142E+01
             -0.502177481428055E+01
             -0.604854522527314E+01
              0.312114071666912E+01
             -0.864150376936659E+01
              0.235510458377513E+01
              0.999406140968640E+01
              0.116155362908837E+02
              0.556349561404773E+01
              0.297567164848895E+01
              0.494120152303289E+01
              0.151358590905249E+02
              0.341270938339876E+01
             -0.926971393094412E+01
             -0.205928752748891E+01
             -0.470413458855519E+01
              0.104556089631391E+02
             -0.126763957367693E+02
             -0.102273819322062E+02
             -0.504460647612379E+01
             -0.212669067625271E+01
             -0.706048815401050E+01
              0.461072716515233E+01
              0.220744109310785E+01
              0.221132764704920E+01
             -0.649448768933459E+01
             -0.584095688457686E+01
             -0.930978863692114E+01
              0.594010196714156E+01
             -0.531192684910123E+01
              0.492168380559887E+01
             -0.115129318261749E+01
             -0.515310018254041E+01
             -0.905336417675855E+01
             -0.263588695382406E+01
             -0.251458390830210E+01
             -0.256294393559479E+01
              0.663882343084172E+01
              0.121198443800497E+02
             -0.703885791214359E+01
             -0.132956949572334E+02
             -0.324574591411699E+01
              0.184988372437880E+02
             -0.935092064378981E+01
              0.535257965170624E+01
             -0.155259561677117E+01
             -0.104776935067152E+02
              0.464383950157428E+01
              0.564225908904751E+01
             -0.247836099310290E+01
              0.525524155665661E+01
             -0.462784197935125E+01
             -0.917975954379229E+01
              0.158840768045093E+02
              0.745191620616811E+01
              0.432963773632450E+01
              0.195218525368213E+01
              0.316623935113045E+01
              0.137709202338884E+02
             -0.449341382010392E+01
              0.593675523580394E+00
             -0.234200289815046E+02
              0.339538924081518E+01
             -0.113719935107015E+02
              0.214551527053659E+01
              0.347250091003579E+01
             -0.572320422094525E+01
             -0.876320058572677E+01
              0.792722882770903E+00
             -0.505433505539452E+01
              0.662577272184853E+01
             -0.763425122535889E+01
             -0.878763550526998E+00
             -0.630739965959075E+01
             -0.426255780121096E+00
              0.225223827587062E+00
              0.312854369296230E+01
              0.831403809741005E-01
             -0.121628008489283E+01
              0.105208911586179E+02
              0.152052007920616E+02
              0.809100792751961E+01
              0.120019064278729E+02
             -0.232835181430775E+01
              0.156767278554880E+01
              0.871521484669968E+01
             -0.208127349138053E+00
             -0.125558036455137E+02
             -0.697585520254997E+01
             -0.823144865690617E+01
             -0.493138028673818E+01
              0.446754196420187E+01
             -0.199347122170344E+02
             -0.226044356254244E+01
              0.728420493584340E+01
             -0.683731160002598E+01
             -0.545528997966986E+01
              0.894496234088956E+01
              0.795425420405213E+01
             -0.502636795542224E+01
              0.422065962035953E+01
             -0.424749337577702E+01
              0.628071317443968E+01
              0.129988385725401E+01
              0.242772703097916E+01
             -0.140569830646073E+02
             -0.807131760596569E+01
             -0.160349611729956E+01
             -0.395935849267782E+00
             -0.669033715856411E+01
              0.181856594848890E+02
             -0.248185506104802E+01
             -0.507398214897098E+01
              0.672157480472288E+01
             -0.772382908918860E+01
             -0.600906554032296E+01
              0.515673867554786E+01
              0.179721230917723E+01
              0.173176114589511E+01
              0.214715232626272E+01
             -0.188319496732683E+01
              0.231390930760887E+01
              0.982184123288536E+01
             -0.487749981669430E+01
              0.330795707235841E+01
              0.149693280081668E+02
              0.523212729792143E+01
             -0.726019930042099E+00
             -0.308310324838170E+01
              0.254308074345988E+02
             -0.366038382157782E+01
              0.637971450356464E+01
              0.449131962289928E+01
              0.527241929233829E+01
              0.154850483070148E+02
              0.798343110836235E+01
             -0.735580166560582E+00
              0.376440057868579E+01
              0.840048915166140E+01
              0.628062601386792E+01
             -0.974311064854579E+01
              0.156754416110257E+02
             -0.143885542897808E+02
             -0.243547133360366E+01
              0.950219525909715E+01
              0.183052266700440E+01
              0.737181400630178E+00
              0.510971607640601E+01
              0.323818179075688E+01
              0.549338801954501E+01
             -0.104001834614314E+02
              0.619252497229041E+00
             -0.410936260253062E+01
             -0.107865080751463E+01
             -0.189755811860948E+00
             -0.183806028529654E+01
             -0.941825806943271E+00
              0.140385590005882E+02
             -0.941241923923030E+00
             -0.492080467657931E+01
             -0.428727878319251E+00
              0.228199827146060E+01
             -0.102243788462246E+02
             -0.807205911784989E+01
             -0.571121036013216E+01
             -0.103991835758587E+02
             -0.298259271035689E+01
             -0.688636026065709E+01
              0.297237039665152E+01
             -0.851353676279558E-01
             -0.200695450310605E+01
             -0.144404233764653E+01
              0.108173807720707E+01
             -0.338911610538375E+01
              0.107883112951627E+02
             -0.140786849652394E+02
             -0.205865720699070E+01
             -0.264631762692846E+01
              0.283875006780035E+01
              0.317012135097079E+01
             -0.824953609367364E+01
             -0.243383275496355E+01
              0.744083643383855E+01
             -0.392107260134207E+01
              0.228875216770510E+01
              0.609026398459113E+01
             -0.107930405008119E+00
              0.191802826977551E+02
             -0.261394419872920E+01
             -0.603835091518290E+01
              0.267097002710045E+00
             -0.454346309606188E+01
              0.859839868715810E+01
             -0.727568658654020E+01
              0.218927739693100E+01
              0.888507167676173E+01
             -0.230836566104308E+01
              0.196574380378211E+02
              0.210020126616630E+02
             -0.117888765579433E+02
              0.952320300091349E+01
              0.332228337184095E+01
             -0.898039014392068E+01
              0.342524099968936E+01
              0.653244517257536E+01
              0.709539993973911E+01
              0.738920010953855E+00
              0.287431232865148E+01
              0.120170721313672E+02
             -0.386579028360265E+01
              0.183469873921629E+01
              0.115116445678476E+02
             -0.602229201320578E+01
             -0.329790042123530E+01
              0.938120117903744E+01
              0.509218816998418E+01
              0.129003685117595E+02
              0.503258141243009E+01
              0.183310431327641E+01
              0.412980181941526E+01
              0.693527712977402E+01
             -0.804400460840831E+01
              0.787615525987590E+00
              0.346494964883187E+01
              0.153531880643303E+01
              0.386546697557768E+01
             -0.101379471480556E+02
              0.570565020373228E+01
             -0.725333658127666E+01
             -0.525153052137819E+01
              0.287550788968095E+01
             -0.208953555826032E+01
              0.956181138969861E+01
             -0.339881314448812E+01
              0.454253570896081E+01
              0.517017851829355E+01
              0.131853770403999E+02
              0.899677680426643E+01
              0.844239442391061E+01
             -0.136137220286653E+01
             -0.135377128642967E+01
             -0.513403534753806E+01
              0.131801902735600E+02
              0.136404831301930E+02
              0.618172188824436E+01
             -0.419570494224195E+01
              0.831600750598237E+01
             -0.101065022265601E+01
              0.341068016619418E+01
              0.111172258931981E+02
             -0.347685596289104E+00
             -0.183808272383124E+01
             -0.428990813300739E+01
             -0.948438615051163E+01
              0.159901851765246E+02
              0.776447456852202E+01
             -0.102486949716080E+02
             -0.296774218985083E+01
              0.416435703437928E+01
             -0.201757782990277E+01
              0.104693783840683E+02
              0.270401361464109E+01
              0.132987040540967E+02
              0.446708273016623E+01
             -0.422888168290069E+01
              0.342032012999864E+01
             -0.104866695722297E+01
             -0.461063306873339E+01
              0.276998782896813E+01
              0.324367113685936E+01
              0.148227912193139E+02
              0.127227349731853E+02
              0.935862053600955E+01
              0.118212073678155E+02
              0.125297256737144E+01
             -0.457317145156338E+01
              0.226615315566331E+01
             -0.577157881004221E+01
             -0.879345336219580E+01
             -0.953460538509442E+01
             -0.499905441217227E+01
             -0.181853066979646E+02
             -0.564197226954882E+01
             -0.141321812235262E+02
              0.312056507486969E+01
             -0.770185646310932E+01
              0.776899078466941E+01
             -0.157938816016906E+02
             -0.509141126684421E+01
              0.755880340485163E+01
              0.358820024936848E+01
             -0.144214190933850E+02
              0.943847803545462E+01
             -0.462517373230006E+01
              0.898651448569932E+01
             -0.478495899190080E+01
             -0.127078941242131E+02
              0.271960061600447E+01
             -0.105148518710534E+02
             -0.151937418121381E+01
             -0.596890126694110E-01
              0.708649214909218E+01
              0.208720930237226E+02
             -0.745868129323927E+01
             -0.624391045676761E+01
             -0.903127300836189E+00
             -0.165563641571093E+01
             -0.133168521962175E+02
             -0.978142198934318E+01
              0.871496439199186E+01
             -0.361811704502539E+01
              0.313106859239506E+01
             -0.812618404976555E+01
             -0.225390865779698E+01
             -0.709265897965630E+01
              0.831454191146240E+01
              0.262817274775280E+01
             -0.407188417296273E+01
             -0.240880484909692E+01
              0.181243593872717E+01
             -0.130618001414443E+01
              0.665645935854066E+01
             -0.444178618966914E+01
              0.114937030142291E+01
              0.546460363271339E+01
              0.248360475692650E+01
             -0.341823776107523E+01
              0.259402074877211E+02
              0.938564193222217E+01
              0.122332929712046E+01
              0.141646685329886E+01
             -0.100439730128156E+02
              0.530303121715871E+01
             -0.124059645502411E+02
             -0.519412683384903E+01
             -0.972362123996497E+01
             -0.308861881016682E+01
              0.969253951474442E+01
             -0.947969228578314E+01
              0.356996711619547E+01
             -0.657316725980991E+00
              0.389933951610079E+00
             -0.579827393124123E+01
             -0.714544593824306E+01
             -0.819985101510909E+00
             -0.638140608855206E+01
             -0.387094019437719E+01
             -0.654024826301172E+01
             -0.113677080875524E+01
             -0.540386637791320E+01
             -0.822729950845928E+01
              0.390289330008265E+01
             -0.257478894613114E+01
              0.351868468977933E+01
              0.171664847356008E+01
             -0.122810049042468E+02
             -0.880056470791216E+01
             -0.763020158637266E+01
              0.569503094225766E+01
             -0.575969989425602E+00
             -0.104222852150148E+02
              0.943298804702877E+01
             -0.710978946057948E+01
              0.918735771510212E+01
             -0.493150587597419E+01
             -0.799932470151866E+01
              0.454825177232712E+01
             -0.117789667301686E+02
             -0.574936489225468E+01
              0.105408328653650E+02
              0.354363813265225E+01
             -0.643912336929817E+01
              0.902887157350051E+01
             -0.270199493115948E+01
             -0.576879818305764E+01
             -0.507749472636953E+01
             -0.865821654777318E+01
              0.403317632583448E+01
             -0.149036815342072E+02
             -0.133529406368546E+02
             -0.106175872068800E+01
             -0.487223935931593E+01
             -0.989727957358037E+01
              0.123811072165854E+02
              0.225314976045591E+02
             -0.451020958434081E+01
             -0.369878669313849E+00
             -0.105547696303153E+02
              0.108732897887422E+02
              0.336495015450033E+01
             -0.296737005426442E+01
             -0.644955760912950E+01
              0.233163657456497E+01
             -0.100616254907530E+02
             -0.214794416366404E+01
             -0.147495384253033E+02
              0.532811874707767E+01
              0.257567240133855E+01
             -0.445832422514655E+00
             -0.149028667251940E+01
             -0.614679725022850E+01
             -0.189805140826751E+01
              0.221932269725135E+02
             -0.273639518953156E+01
             -0.771254494773002E+01
             -0.112753330569023E+02
              0.217835426711581E+01
             -0.597793864348519E+01
              0.116069248156981E+01
              0.514966142124562E+01
              0.103278088021160E+01
              0.567056511194800E+01
              0.272571438369167E+01
              0.100725598295175E+02
              0.473984431924662E+01
             -0.574522182479264E+01
              0.769066458937579E+01
              0.600669727262435E+01
              0.210600075786580E+01
              0.685499129270703E+01
             -0.439966335635831E+01
              0.120375242856392E+02
              0.359636834287813E+01
             -0.533903603793290E+01
             -0.122215782696927E+01
             -0.279635726517584E+01
              0.319155506620076E+01
             -0.443481735611924E+01
             -0.115902985846206E+01
             -0.183991476859265E+01
              0.134377931025880E+02
              0.932811094489897E+01
             -0.113011043448956E+02
             -0.953205063970561E+00
             -0.882231703703940E+01
             -0.239594151629959E+01
             -0.392263009847610E+01
              0.138683532038549E+01
             -0.495413315104254E+00
             -0.446065361397370E+01
              0.200592458969304E+01
             -0.134101529475878E+01
             -0.170707599404292E+01
              0.143905812771510E+02
              0.284872894513674E+01
             -0.135667065109612E+02
             -0.715842959083108E+01
              0.155490959351939E+02
              0.393906019356247E+01
             -0.146557810624543E+01
              0.180848065640847E+02
             -0.316703115502214E+01
             -0.152436551046110E+01
             -0.174607400898213E+01
              0.238511639092567E+01
              0.500823962643405E+01
              0.743617082879243E+00
              0.485104636963851E+01
             -0.236591295083247E+01
             -0.594104806284167E+01
             -0.651309105979421E+01
             -0.813134332815847E+01
              0.738835751821465E+01
              0.250652973339933E+01
              0.636638817064609E+01
              0.267724025852004E+01
              0.147140281385397E+02
              0.294284104166612E+01
             -0.129630378905820E+02
             -0.552371146098050E+01
              0.122321928538396E+01
             -0.474612626096304E+01
              0.104195358151776E+02
             -0.223680864219799E+01
              0.266804631168225E+01
              0.873855742320544E+01
             -0.129613521280720E+02
              0.246716150672667E+02
[...]
  251                map_scatter                           4.172056                  140   7
  252              map_backward                         10.940698                    288   6
  253                map_gather                            4.209504                  144   7
  254                m_alltoallv_z                         2.232623                  144   7
  255                map_scatter                           4.495995                  144   7
  256        ggaall_grid                           6.965401                            4   3
  257        m_sumb_d                              0.002542                           24   3
  258        forhar                                1.461336                            4   3
  259          m_sumb_d                              0.001785                          4   4
  260        strehar                               1.486322                            4   3
  261          m_sumb_d                              0.002551                          4   4
  262        m_bcast_d                             0.000459                            8   3
  263      potlok                             1738.562942                              7   2
  264        fft3d_mpi                           289.796244                         1535   3
  265          fftbrc_mpi                          264.288591                       1535   4
  266            fftbas_plan_mpi                     264.284166                     1535   5
  267              dfftw_execute                       145.621327                   4605   6
  268              map_forward                          60.029015                   1542   6
  269                map_gather                           21.239804                  778   7
  270                m_alltoallv_z                        15.779964                  778   7
  271                map_scatter                          22.994951                  778   7
  272              map_backward                         57.612561                   1528   6
  273                map_gather                           22.210390                  764   7
  274                m_alltoallv_z                        11.553414                  764   7
  275                map_scatter                          23.834870                  764   7
  276        ggaall_grid                         128.869406                          135   3
  277        m_sumb_d                              0.059963                          682   3
  278        pothar                                0.399147                            7   3
  279          m_sumb_d                              0.002971                          7   4
  280        m_bcast_d                             0.082747                            7   3
  281      potlok_metagga                        0.000046                              7   2
  282      set_dd_magatom                        0.000004                              4   2
  283      set_dd_paw                            0.050789                              7   2
  284        set_rsgf_all                          0.000012                            7   3
  285        m_sumb_d                              0.049725                           49   3
  286      wavpre_noio                           2.513609                              3   2
  287        stufak                                0.492206                            3   3
  288      eddiag                                1.325396                              3   2
  289        overl                                 0.000068                            3   3
  290        redis_proj                            0.001281                            9   3
  291          m_alltoall_d                          0.001100                         27   4
  292        fftwav_mpi                            0.593595                            9   3
  293          fftwav                                0.593556                          9   4
  294            fft3d                                 0.537071                        9   5
  295        hamilt_local                          0.628473                            9   3
  296          vhamil                                0.102875                          9   4
  297          kinhamil                              0.525510                          9   4
  298            fftext_mpi                            0.518114                        9   5
  299              fft3d_mpi                             0.490977                      9   6
  300                fft3d                                 0.490919                    9   7
  301        redis_pw                              0.070346                            9   3
  302          m_alltoall_d                          0.051964                         27   4
  303        orth1                                 0.010719                            3   3
  304        m_sumb_d                              0.001161                            3   3
  305        shift_bands_between_low_high          0.000002                            3   3
  306        lincom                                0.014212                            3   3
  307      set_charge                            4.807695                              3   2
  308        soft_charge                           0.935922                            3   3
  309          fftwav_mpi                            0.385844                          6   4
  310            fftwav                                0.385823                        6   5
  311              fft3d                                 0.350157                      6   6
  312          pw_charge                             0.066840                          6   4
  313          m_sumb_d                              0.074798                          3   4
  314          fft_gq                                0.374470                          3   4
  315            fft3d_mpi                             0.363938                        3   5
  316              fftbrc_mpi                            0.159488                      3   6
  317                fftbas_plan_mpi                       0.159480                    3   7
  318                  dfftw_execute                         0.076863                  9   8
  319                  map_backward                          0.080933                  6   8
  320                    map_gather                            0.036302                6   9
  321                    m_alltoallv_z                         0.025439                6   9
  322                    map_scatter                           0.019073                6   9
  323        m_sumb_d                              0.084284                            3   3
  324        depsum                                0.000231                            3   3
  325          m_sumb_d                              0.000156                          3   4
  326        augmentation_charge                   0.661774                            3   3
  327          fft3d_mpi                             0.560592                          3   4
  328            fftbrc_mpi                            0.512288                        3   5
  329              fftbas_plan_mpi                       0.512280                      3   6
  330                dfftw_execute                         0.284839                    9   7
  331                map_backward                          0.225479                    6   7
  332                  map_gather                            0.086683                  3   8
  333                  m_alltoallv_z                         0.045178                  3   8
  334                  map_scatter                           0.093557                  3   8
 
 Flat profile
 ============
 
             routine name                   CPU           calls
 ---------------------------------------------------------------
 potlok                              61509.160280          98
 dfftw_execute                         810.144038       25962
 ggaall_grid                           808.684193         230
 force_and_stress                      709.513021           4
 map_scatter                           260.054493        8846
 map_gather                            239.897285        8846
 fft3d_mpi                             152.057379        9010
 m_alltoallv_z                         138.760043        8846
 set_charge                             97.963911          94
 fft3d                                  71.834335        1241
 total_time                             24.679689           1
 edwav                                   6.351431          90
 m_sumb_d                                6.295365        4023
 eccp                                    6.088004         555
 fftbas_plan_mpi                         5.891340        8654
 pothar                                  5.551145          98
 fftwav                                  5.378278         885
 augmentation_charge                     3.189676          94
 m_alltoall_d                            2.831357        5246
 vhamil                                  2.531108         221
 pw_charge                               2.074528         188
 wavpre_noio                             2.021403           3
 strehar                                 1.483771           4
 forhar                                  1.459551           4
 forloc                                  1.399734           4
 strelo                                  1.298061           4
 lincom                                  1.249750         286
 m_bcast_d                               1.175571         244
 redis_pw                                1.066128         984
 soft_charge                             1.060440          94
 w1_dscal                                1.060001         135
 orth1                                   0.904491         320
 fftext_mpi                              0.745336         356
 stufak                                  0.676159           4
 fft_gq                                  0.330766          94
 elmin_all                               0.277555           4
 eddav                                   0.209494           5
 kinhamil                                0.180432         221
 ggemm                                   0.157367          53
 w1_copy                                 0.133619         195
 lapack                                  0.103772          43
 setdij_                                 0.091548         203
 map_backward                            0.082218        8744
 map_forward                             0.078148        8564
 m_bcast_z                               0.064843          12
 rspher_all                              0.051747          53
 inisym                                  0.042734           1
 brgrid                                  0.042083           1
 apply_precond                           0.032964          50
 setup_precond                           0.030218          15
 redis_proj                              0.024330        1668
 eddiag                                  0.023793          52
 fftbrc_mpi                              0.023544        8654
 set_dd_paw                              0.018072         102
 racc0                                   0.017696         156
 rpro_isp                                0.017189          52
 choleski                                0.016828          94
 strkin                                  0.014611           4
 rpro1                                   0.014467         151
 rpromu_gemm                             0.011364         138
 overl                                   0.010545         441
 rpromu                                  0.008312          69
 densta                                  0.008298         105
 orthch                                  0.006288          94
 fewald                                  0.005609           4
 gemm                                    0.003696          44
 fftwav_mpi                              0.003550         885
 depsum                                  0.002461          94
 rsp                                     0.002279           4
 racc0mu                                 0.002196          22
 hamilt_local                            0.001637         156
 strnlr                                  0.001414           4
 newband                                 0.001257          48
 hamiltmu                                0.001093          43
 redis_pw_all                            0.000929          90
 overl1                                  0.000790          65
 potlok_metagga                          0.000661          98
 raccmu_                                 0.000632          43
 rcp                                     0.000611           4
 fornlr                                  0.000567           4
 redis_pw_over_bands                     0.000413          97
 set_rsgf_all                            0.000347         102
 crpa_reader                             0.000221           1
 w1_projall                              0.000192          33
 fordep                                  0.000158           4
 set_dd_magatom                          0.000098           8
 truncate_high_frequency_w1              0.000081          80
 proall                                  0.000077           4
 phaser                                  0.000068         102
 rotate_active_occupied_orbital          0.000054           4
 posmap                                  0.000024           2
 vectorpot                               0.000018           1
 shift_bands_between_low_high            0.000006           7
 ---------------------------------------------------------------
  summed up times    64886.6872768402     
 
 Accumulative profile
 ====================
 
             routine name                   CPU           calls
 ---------------------------------------------------------------
 total_time                          64886.687277           1
 potlok                              63841.444741          98
 elmin_all                           62327.472474           4
 fft3d_mpi                            1626.385805        9010
 fftbrc_mpi                           1454.931109        8654
 fftbas_plan_mpi                      1454.907565        8654
 dfftw_execute                         810.144038       25962
 ggaall_grid                           808.684193         230
 force_and_stress                      785.197629           4
 map_backward                          326.327127        8744
 map_forward                           312.545060        8564
 map_scatter                           260.054493        8846
 map_gather                            239.897285        8846
 set_charge                            150.806451          94
 m_alltoallv_z                         138.760043        8846
 fft3d                                  71.834335        1241
 fftwav_mpi                             57.818845         885
 fftwav                                 57.815296         885
 edwav                                  51.502207          90
 soft_charge                            29.388084          94
 augmentation_charge                    20.726647          94
 fftext_mpi                             20.145039         356
 eddav                                  13.782462           5
 eddiag                                 13.408002          52
 kinhamil                               12.677143         221
 fft_gq                                 11.773313          94
 hamilt_local                           10.729572         156
 rpro_isp                               10.214414          52
 strnlr                                  7.085610           4
 m_sumb_d                                6.295365        4023
 eccp                                    6.088004         555
 pothar                                  5.583886          98
 hamiltmu                                4.490650          43
 redis_pw                                3.676026         984
 m_alltoall_d                            2.831357        5246
 vhamil                                  2.531108         221
 wavpre_noio                             2.513609           3
 fornlr                                  2.364782           4
 pw_charge                               2.074528         188
 strehar                                 1.486322           4
 forhar                                  1.461336           4
 forloc                                  1.399926           4
 strelo                                  1.300874           4
 newband                                 1.252083          48
 lincom                                  1.249750         286
 m_bcast_d                               1.175571         244
 w1_dscal                                1.060001         135
 orth1                                   0.904491         320
 proall                                  0.814981           4
 orthch                                  0.790850          94
 set_dd_paw                              0.746452         102
 stufak                                  0.676159           4
 redis_pw_over_bands                     0.573821          97
 redis_pw_all                            0.573408          90
 redis_proj                              0.245788        1668
 setdij_                                 0.245489         203
 ggemm                                   0.157367          53
 w1_copy                                 0.133619         195
 lapack                                  0.103772          43
 m_bcast_z                               0.064843          12
 rspher_all                              0.051747          53
 inisym                                  0.042758           1
 brgrid                                  0.042083           1
 densta                                  0.041795         105
 apply_precond                           0.032964          50
 depsum                                  0.030241          94
 setup_precond                           0.030218          15
 rpromu                                  0.019675          69
 racc0                                   0.017696         156
 choleski                                0.016828          94
 strkin                                  0.015021           4
 rpro1                                   0.014467         151
 rpromu_gemm                             0.011364         138
 overl                                   0.010545         441
 fordep                                  0.009313           4
 raccmu_                                 0.009242          43
 fewald                                  0.009060           4
 racc0mu                                 0.005893          22
 w1_projall                              0.003957          33
 gemm                                    0.003696          44
 rsp                                     0.002279           4
 overl1                                  0.000790          65
 potlok_metagga                          0.000661          98
 rcp                                     0.000611           4
 set_rsgf_all                            0.000347         102
 crpa_reader                             0.000221           1
 set_dd_magatom                          0.000098           8
 truncate_high_frequency_w1              0.000081          80
 phaser                                  0.000068         102
 rotate_active_occupied_orbital          0.000054           4
 posmap                                  0.000024           2
 vectorpot                               0.000018           1
 shift_bands_between_low_high            0.000006           7
 ---------------------------------------------------------------
 
Profiling took   0.150375  0.050134  0.007476  0.006764 seconds
Profiling took   0.220464 seconds
