 vasp.6.3.2 27Jun22 (build Jan 03 2024 23:25:20) gamma-only                     
  
 executed on           IFC15_impi date 2024.06.05  05:38:59
 running  512 mpi-ranks, with    1 threads/rank
 distrk:  each k-point on  512 cores,    1 groups
 distr:  one band on NCORE=  32 cores,   16 groups


--------------------------------------------------------------------------------------------------------


 INCAR:
   ENCUT = 500.000000
   SIGMA = 0.010000
   EDIFF = 1.00e-05
   ALGO = A
   ISMEAR = 0
   NELM = 200
   NSW = 999
   NCORE = 32
   LCHARG = .TRUE.
   LWAVE = .TRUE.
   LREAL = Auto
   IBRION = 5
   POTIM = 0.015
   NFREE = 2
   ISYM = 0
   EDIFFG = -0.05
   GGA = BF
   LUSE_VDW = .TRUE.
   ZAB_VDW = -1.8867
   LBEEFENS = .TRUE.
   DIPOL = 0.5 0.5 0.65
   IDIPOL = 3
   LDIPOL = .TRUE.

 POTCAR:    PAW_PBE Au 04Oct2007                  
 POTCAR:    PAW_PBE O 08Apr2002                   
 POTCAR:    PAW_PBE Sr_sv 07Sep2000               
 POTCAR:    PAW_PBE Ti_sv 26Sep2005               
 POTCAR:    PAW_PBE H 15Jun2001                   
 -----------------------------------------------------------------------------
|                                                                             |
|               ----> ADVICE to this user running VASP <----                  |
|                                                                             |
|     You have switched on vdW-DFT.                                           |
|     This routine was written and supplied by Jiri Klimes. We recommend      |
|     that you carefully read and cite the following publications:            |
|       J. Klimes, D.R. Bowler, A. Michelides                                 |
|          J. Phys.: Cond Matt. 22 022201 (2010)                              |
|       J. Klimes, D.R. Bowler, A. Michelides                                 |
|          Phys. Rev. B. 83, 195131 (2011)                                    |
|     and references therein.                                                 |
|                                                                             |
 -----------------------------------------------------------------------------

 POTCAR:    PAW_PBE Au 04Oct2007                  
   SHA256 =  d0044ae04e2bdce24051b198fc5c053d722a5bc6fe3c3b100514a13fc5d2db88 Au/POTCAR             
   COPYR  = (c) Copyright 04Oct2007 Georg Kresse                                                    
   COPYR  = This file is part of the software VASP. Any use, copying, and all other rights are regul
   COPYR  = If you do not have a valid VASP license, you may not use, copy or distribute this file. 
   VRHFIN =Au: s1d10                                                                                
   LEXCH  = PE                                                                                      
   EATOM  =   926.0867 eV,   68.0654 Ry                                                             
                                                                                                    
   TITEL  = PAW_PBE Au 04Oct2007                                                                    
   LULTRA =        F    use ultrasoft PP ?                                                          
   IUNSCR =        1    unscreen: 0-lin 1-nonlin 2-no                                               
   RPACOR =    2.330    partial core radius                                                         
   POMASS =  196.966; ZVAL   =   11.000    mass and valenz                                          
   RCORE  =    2.500    outmost cutoff radius                                                       
   RWIGS  =    2.840; RWIGS  =    1.503    wigner-seitz radius (au A)                               
   ENMAX  =  229.943; ENMIN  =  172.457 eV                                                          
   ICORE  =        3    local potential                                                             
   LCOR   =        T    correct aug charges                                                         
   LPAW   =        T    paw PP                                                                      
   EAUG   =  356.670                                                                                
   DEXC   =    0.000                                                                                
   RMAX   =    2.562    core radius for proj-oper                                                   
   RAUG   =    1.300    factor for augmentation sphere                                              
   RDEP   =    2.598    radius for radial grids                                                     
   RDEPT  =    2.193    core radius for aug-charge                                                  
                                                                                                    
   Atomic configuration                                                                             
   16 entries                                                                                       
     n  l   j            E        occ.                                                              
     1  0  0.50    -80748.5001   2.0000                                                             
     2  0  0.50    -14244.7466   2.0000                                                             
     2  1  1.50    -12310.9591   6.0000                                                             
     3  0  0.50     -3362.1768   2.0000                                                             
     3  1  1.50     -2801.5463   6.0000                                                             
     3  2  2.50     -2203.8206  10.0000                                                             
     4  0  0.50      -729.8168   2.0000                                                             
     4  1  1.50      -546.0527   6.0000                                                             
     4  2  2.50      -325.7302  10.0000                                                             
     4  3  3.50       -81.1472  14.0000                                                             
     5  0  0.50      -108.3201   2.0000                                                             
     5  1  1.50       -59.7479   6.0000                                                             
     5  2  2.50        -6.8783  10.0000                                                             
     6  0  0.50        -5.7602   1.0000                                                             
     6  1  1.50        -6.8029   0.0000                                                             
     5  3  2.50        -1.3606   0.0000                                                             
   Description                                                                                      
     l       E           TYP  RCUT    TYP  RCUT                                                     
     2     -6.8782861     23  2.500                                                                 
     2     -8.2388687     23  2.500                                                                 
     0     -5.7601759     23  2.500                                                                 
     0     -0.8493231     23  2.500                                                                 
     1     -2.7211652     23  2.500                                                                 
     1     27.2116520     23  2.500                                                                 
     3     -1.3605826     23  2.500                                                                 
  local pseudopotential read in
  partial core-charges read in
  partial kinetic energy density read in
  atomic valenz-charges read in
  non local Contribution for L=           2  read in
    real space projection operators read in
  non local Contribution for L=           2  read in
    real space projection operators read in
  non local Contribution for L=           0  read in
    real space projection operators read in
  non local Contribution for L=           0  read in
    real space projection operators read in
  non local Contribution for L=           1  read in
    real space projection operators read in
  non local Contribution for L=           1  read in
    real space projection operators read in
    PAW grid and wavefunctions read in
 
   number of l-projection  operators is LMAX  =           6
   number of lm-projection operators is LMMAX =          18
 
 POTCAR:    PAW_PBE O 08Apr2002                   
   SHA256 =  818f92134a0a090dccd8ba1447fa70422a3b330e708bb4f08108d8ae51209ddf O/POTCAR              
   COPYR  = (c) Copyright 08Apr2002 Georg Kresse                                                    
   COPYR  = This file is part of the software VASP. Any use, copying, and all other rights are regul
   COPYR  = If you do not have a valid VASP license, you may not use, copy or distribute this file. 
   VRHFIN =O: s2p4                                                                                  
   LEXCH  = PE                                                                                      
   EATOM  =   432.3788 eV,   31.7789 Ry                                                             
                                                                                                    
   TITEL  = PAW_PBE O 08Apr2002                                                                     
   LULTRA =        F    use ultrasoft PP ?                                                          
   IUNSCR =        1    unscreen: 0-lin 1-nonlin 2-no                                               
   RPACOR =    1.200    partial core radius                                                         
   POMASS =   16.000; ZVAL   =    6.000    mass and valenz                                          
   RCORE  =    1.520    outmost cutoff radius                                                       
   RWIGS  =    1.550; RWIGS  =    0.820    wigner-seitz radius (au A)                               
   ENMAX  =  400.000; ENMIN  =  300.000 eV                                                          
   ICORE  =        2    local potential                                                             
   LCOR   =        T    correct aug charges                                                         
   LPAW   =        T    paw PP                                                                      
   EAUG   =  605.392                                                                                
   DEXC   =    0.000                                                                                
   RMAX   =    1.553    core radius for proj-oper                                                   
   RAUG   =    1.300    factor for augmentation sphere                                              
   RDEP   =    1.550    radius for radial grids                                                     
   RDEPT  =    1.329    core radius for aug-charge                                                  
                                                                                                    
   Atomic configuration                                                                             
    4 entries                                                                                       
     n  l   j            E        occ.                                                              
     1  0  0.50      -514.6923   2.0000                                                             
     2  0  0.50       -23.9615   2.0000                                                             
     2  1  0.50        -9.0305   4.0000                                                             
     3  2  1.50        -9.5241   0.0000                                                             
   Description                                                                                      
     l       E           TYP  RCUT    TYP  RCUT                                                     
     0    -23.9615318     23  1.200                                                                 
     0     -9.5240782     23  1.200                                                                 
     1     -9.0304911     23  1.520                                                                 
     1      8.1634956     23  1.520                                                                 
     2     -9.5240782      7  1.500                                                                 
  local pseudopotential read in
  partial core-charges read in
  partial kinetic energy density read in
  kinetic energy density of atom read in
  atomic valenz-charges read in
  non local Contribution for L=           0  read in
    real space projection operators read in
  non local Contribution for L=           0  read in
    real space projection operators read in
  non local Contribution for L=           1  read in
    real space projection operators read in
  non local Contribution for L=           1  read in
    real space projection operators read in
    PAW grid and wavefunctions read in
 
   number of l-projection  operators is LMAX  =           4
   number of lm-projection operators is LMMAX =           8
 
 POTCAR:    PAW_PBE Sr_sv 07Sep2000               
   SHA256 =  a8389d3481648516ee67182ee030b298d280b37e29cbbf2d8595f040d757c710 Sr_sv/POTCAR          
   COPYR  = (c) Copyright 07Sep2000 Georg Kresse                                                    
   COPYR  = This file is part of the software VASP. Any use, copying, and all other rights are regul
   COPYR  = If you do not have a valid VASP license, you may not use, copy or distribute this file. 
   VRHFIN =Sr: 4s4p5s                                                                               
   LEXCH  = PE                                                                                      
   EATOM  =   843.0319 eV,   61.9611 Ry                                                             
                                                                                                    
   TITEL  = PAW_PBE Sr_sv 07Sep2000                                                                 
   LULTRA =        F    use ultrasoft PP ?                                                          
   IUNSCR =        1    unscreen: 0-lin 1-nonlin 2-no                                               
   RPACOR =    2.200    partial core radius                                                         
   POMASS =   87.620; ZVAL   =   10.000    mass and valenz                                          
   RCORE  =    2.500    outmost cutoff radius                                                       
   RWIGS  =    4.040; RWIGS  =    2.138    wigner-seitz radius (au A)                               
   ENMAX  =  229.353; ENMIN  =  172.014 eV                                                          
   RCLOC  =    2.201    cutoff for local pot                                                        
   LCOR   =        T    correct aug charges                                                         
   LPAW   =        T    paw PP                                                                      
   EAUG   =  366.804                                                                                
   DEXC   =    0.000                                                                                
   RMAX   =    2.547    core radius for proj-oper                                                   
   RAUG   =    1.300    factor for augmentation sphere                                              
   RDEP   =    2.562    radius for radial grids                                                     
   RDEPT  =    2.128    core radius for aug-charge                                                  
                                                                                                    
   Atomic configuration                                                                             
   10 entries                                                                                       
     n  l   j            E        occ.                                                              
     1  0  0.50    -15934.8930   2.0000                                                             
     2  0  0.50     -2157.6250   2.0000                                                             
     2  1  1.50     -1917.0034   6.0000                                                             
     3  0  0.50      -333.7288   2.0000                                                             
     3  1  1.50      -256.0992   6.0000                                                             
     3  2  2.50      -127.9971  10.0000                                                             
     4  0  0.50       -40.8953   2.0000                                                             
     5  0  0.50        -3.5257   1.9990                                                             
     4  1  1.50       -22.8179   6.0000                                                             
     4  2  1.50        -1.2815   0.0010                                                             
   Description                                                                                      
     l       E           TYP  RCUT    TYP  RCUT                                                     
     0    -40.8953213     23  2.480                                                                 
     0     -3.5257161     23  2.480                                                                 
     1    -22.8178632     23  2.500                                                                 
     1    -24.1784458     23  2.500                                                                 
     2     -1.2814598     23  2.500                                                                 
     2      0.2279365     23  2.500                                                                 
  local pseudopotential read in
  partial core-charges read in
  partial kinetic energy density read in
  atomic valenz-charges read in
  non local Contribution for L=           0  read in
    real space projection operators read in
  non local Contribution for L=           0  read in
    real space projection operators read in
  non local Contribution for L=           1  read in
    real space projection operators read in
  non local Contribution for L=           1  read in
    real space projection operators read in
  non local Contribution for L=           2  read in
    real space projection operators read in
  non local Contribution for L=           2  read in
    real space projection operators read in
    PAW grid and wavefunctions read in
 
   number of l-projection  operators is LMAX  =           6
   number of lm-projection operators is LMMAX =          18
 
 POTCAR:    PAW_PBE Ti_sv 26Sep2005               
   SHA256 =  4d747badb5a5ea28d858fbac70885b3f8929d6fd9e5b0dbe1ecb9878dc164da1 Ti_sv/POTCAR          
   COPYR  = (c) Copyright 26Sep2005 Georg Kresse                                                    
   COPYR  = This file is part of the software VASP. Any use, copying, and all other rights are regul
   COPYR  = If you do not have a valid VASP license, you may not use, copy or distribute this file. 
   VRHFIN =Ti: 3p4s3d                                                                               
   LEXCH  = PE                                                                                      
   EATOM  =  1588.0892 eV,  116.7213 Ry                                                             
                                                                                                    
   TITEL  = PAW_PBE Ti_sv 26Sep2005                                                                 
   LULTRA =        F    use ultrasoft PP ?                                                          
   IUNSCR =        1    unscreen: 0-lin 1-nonlin 2-no                                               
   RPACOR =    2.000    partial core radius                                                         
   POMASS =   47.880; ZVAL   =   12.000    mass and valenz                                          
   RCORE  =    2.300    outmost cutoff radius                                                       
   RWIGS  =    2.300; RWIGS  =    1.217    wigner-seitz radius (au A)                               
   ENMAX  =  274.610; ENMIN  =  205.957 eV                                                          
   ICORE  =        3    local potential                                                             
   LCOR   =        T    correct aug charges                                                         
   LPAW   =        T    paw PP                                                                      
   EAUG   =  482.848                                                                                
   RMAX   =    2.348    core radius for proj-oper                                                   
   RAUG   =    1.300    factor for augmentation sphere                                              
   RDEP   =    2.381    radius for radial grids                                                     
   RDEPT  =    1.930    core radius for aug-charge                                                  
                                                                                                    
   Atomic configuration                                                                             
    8 entries                                                                                       
     n  l   j            E        occ.                                                              
     1  0  0.50     -4865.3608   2.0000                                                             
     2  0  0.50      -533.1368   2.0000                                                             
     2  1  1.50      -440.5031   6.0000                                                             
     3  0  0.50       -59.3186   2.0000                                                             
     4  0  0.50        -3.7291   1.0000                                                             
     3  1  1.50       -35.7012   6.0000                                                             
     3  2  2.50        -1.9157   3.0000                                                             
     4  3  2.50        -1.3606   0.0000                                                             
   Description                                                                                      
     l       E           TYP  RCUT    TYP  RCUT                                                     
     0    -59.3185931     23  1.800                                                                 
     0     -3.7290822     23  2.300                                                                 
     1    -35.7012045     23  2.300                                                                 
     1     -1.3605826     23  2.300                                                                 
     2     -1.9156920     23  2.300                                                                 
     2     -0.0236318     23  2.300                                                                 
     3     -1.3605826     23  2.300                                                                 
  local pseudopotential read in
  partial core-charges read in
  partial kinetic energy density read in
  atomic valenz-charges read in
  non local Contribution for L=           0  read in
    real space projection operators read in
  non local Contribution for L=           0  read in
    real space projection operators read in
  non local Contribution for L=           1  read in
    real space projection operators read in
  non local Contribution for L=           1  read in
    real space projection operators read in
  non local Contribution for L=           2  read in
    real space projection operators read in
  non local Contribution for L=           2  read in
    real space projection operators read in
    PAW grid and wavefunctions read in
 
   number of l-projection  operators is LMAX  =           6
   number of lm-projection operators is LMMAX =          18
 
 POTCAR:    PAW_PBE H 15Jun2001                   
   SHA256 =  030f79b5d3ab3cf0e668861823c8fb652ff669f3e15e46930bd03bfd63a607b6 H/POTCAR              
   COPYR  = (c) Copyright 15Jun2001 Georg Kresse                                                    
   COPYR  = This file is part of the software VASP. Any use, copying, and all other rights are regul
   COPYR  = If you do not have a valid VASP license, you may not use, copy or distribute this file. 
   VRHFIN =H: ultrasoft test                                                                        
   LEXCH  = PE                                                                                      
   EATOM  =    12.4884 eV,    0.9179 Ry                                                             
                                                                                                    
   TITEL  = PAW_PBE H 15Jun2001                                                                     
   LULTRA =        F    use ultrasoft PP ?                                                          
   IUNSCR =        0    unscreen: 0-lin 1-nonlin 2-no                                               
   RPACOR =    0.000    partial core radius                                                         
   POMASS =    1.000; ZVAL   =    1.000    mass and valenz                                          
   RCORE  =    1.100    outmost cutoff radius                                                       
   RWIGS  =    0.700; RWIGS  =    0.370    wigner-seitz radius (au A)                               
   ENMAX  =  250.000; ENMIN  =  200.000 eV                                                          
   RCLOC  =    0.701    cutoff for local pot                                                        
   LCOR   =        T    correct aug charges                                                         
   LPAW   =        T    paw PP                                                                      
   EAUG   =  400.000                                                                                
   RMAX   =    1.123    core radius for proj-oper                                                   
   RAUG   =    1.200    factor for augmentation sphere                                              
   RDEP   =    1.112    radius for radial grids                                                     
   RDEPT  =    0.926    core radius for aug-charge                                                  
                                                                                                    
   Atomic configuration                                                                             
    2 entries                                                                                       
     n  l   j            E        occ.                                                              
     1  0  0.50        -6.4927   1.0000                                                             
     2  1  0.50        -3.4015   0.0000                                                             
   Description                                                                                      
     l       E           TYP  RCUT    TYP  RCUT                                                     
     0     -6.4927494     23  1.100                                                                 
     0      6.8029130     23  1.100                                                                 
     1     -4.0817478     23  1.100                                                                 
  local pseudopotential read in
  atomic valenz-charges read in
  non local Contribution for L=           0  read in
    real space projection operators read in
  non local Contribution for L=           0  read in
    real space projection operators read in
  non local Contribution for L=           1  read in
    real space projection operators read in
    PAW grid and wavefunctions read in
 
   number of l-projection  operators is LMAX  =           3
   number of lm-projection operators is LMMAX =           5
 
 Optimization of the real space projectors (new method)

 maximal supplied QI-value         = 15.12
 optimisation between [QCUT,QGAM] = [ 11.34, 22.83] = [ 36.00,145.93] Ry 
 Optimized for a Real-space Cutoff    1.39 Angstroem

   l    n(q)    QCUT    max X(q) W(low)/X(q) W(high)/X(q)  e(spline) 
   2      9    11.338    60.898    0.39E-03    0.42E-03    0.21E-06
   2      9    11.338    58.894    0.40E-03    0.42E-03    0.22E-06
   0      9    11.338   109.617    0.13E-03    0.20E-04    0.13E-06
   0      9    11.338    75.026    0.13E-03    0.20E-04    0.13E-06
   1      9    11.338    16.344    0.33E-04    0.24E-03    0.18E-06
   1      9    11.338    10.160    0.26E-04    0.19E-03    0.15E-06
 Optimization of the real space projectors (new method)

 maximal supplied QI-value         = 24.76
 optimisation between [QCUT,QGAM] = [ 11.39, 22.77] = [ 36.31,145.25] Ry 
 Optimized for a Real-space Cutoff    1.00 Angstroem

   l    n(q)    QCUT    max X(q) W(low)/X(q) W(high)/X(q)  e(spline) 
   0      7    11.387    20.381    0.39E-03    0.13E-02    0.15E-06
   0      7    11.387    15.268    0.42E-03    0.14E-02    0.17E-06
   1      6    11.387     5.964    0.41E-03    0.11E-02    0.17E-06
   1      6    11.387     5.382    0.39E-03    0.87E-03    0.15E-06
 Optimization of the real space projectors (new method)

 maximal supplied QI-value         = 15.12
 optimisation between [QCUT,QGAM] = [ 11.34, 22.83] = [ 36.00,145.93] Ry 
 Optimized for a Real-space Cutoff    1.56 Angstroem

   l    n(q)    QCUT    max X(q) W(low)/X(q) W(high)/X(q)  e(spline) 
   0     11    11.338    11.565    0.26E-04    0.80E-05    0.70E-07
   0     11    11.338    10.214    0.41E-04    0.15E-04    0.15E-06
   1     10    11.338   189.983    0.18E-03    0.52E-04    0.42E-06
   1     10    11.338   193.105    0.19E-03    0.52E-04    0.42E-06
   2     10    11.338   115.941    0.22E-03    0.42E-03    0.43E-06
   2     10    11.338    76.444    0.21E-03    0.41E-03    0.42E-06
 Optimization of the real space projectors (new method)

 maximal supplied QI-value         = 16.25
 optimisation between [QCUT,QGAM] = [ 11.38, 22.75] = [ 36.24,144.96] Ry 
 Optimized for a Real-space Cutoff    1.27 Angstroem

   l    n(q)    QCUT    max X(q) W(low)/X(q) W(high)/X(q)  e(spline) 
   0      9    11.376    12.277    0.53E-04    0.25E-04    0.25E-07
   0      9    11.376    11.419    0.89E-04    0.67E-05    0.35E-07
   1      8    11.376     4.010    0.13E-03    0.11E-03    0.29E-07
   1      8    11.376     6.182    0.94E-04    0.19E-03    0.11E-06
   2      8    11.376    47.177    0.13E-03    0.88E-03    0.24E-06
   2      8    11.376    42.437    0.13E-03    0.86E-03    0.23E-06
 Optimization of the real space projectors (new method)

 maximal supplied QI-value         = 34.20
 optimisation between [QCUT,QGAM] = [ 11.29, 22.57] = [ 35.68,142.71] Ry 
 Optimized for a Real-space Cutoff    1.16 Angstroem

   l    n(q)    QCUT    max X(q) W(low)/X(q) W(high)/X(q)  e(spline) 
   0      8    11.287    19.460    0.40E-03    0.73E-03    0.16E-06
   0      8    11.287    12.209    0.38E-03    0.70E-03    0.15E-06
   1      7    11.287     4.655    0.22E-03    0.25E-04    0.22E-06
 -----------------------------------------------------------------------------
|                                                                             |
|               ----> ADVICE to this user running VASP <----                  |
|                                                                             |
|     You enforced a specific xc type in the INCAR file but a different       |
|     type was found in the POTCAR file.                                      |
|     I HOPE YOU KNOW WHAT YOU ARE DOING!                                     |
|                                                                             |
 -----------------------------------------------------------------------------

  PAW_PBE Au 04Oct2007                  :
 energy of atom  1       EATOM= -926.0867
 kinetic energy error for atom=    0.0042 (will be added to EATOM!!)
  PAW_PBE O 08Apr2002                   :
 energy of atom  2       EATOM= -432.3788
 kinetic energy error for atom=    0.0224 (will be added to EATOM!!)
  PAW_PBE Sr_sv 07Sep2000               :
 energy of atom  3       EATOM= -843.0319
 kinetic energy error for atom=    0.0012 (will be added to EATOM!!)
  PAW_PBE Ti_sv 26Sep2005               :
 energy of atom  4       EATOM=-1588.0892
 kinetic energy error for atom=    0.0046 (will be added to EATOM!!)
  PAW_PBE H 15Jun2001                   :
 energy of atom  5       EATOM=  -12.4884
 kinetic energy error for atom=    0.0020 (will be added to EATOM!!)
 
 
 POSCAR: Au O  Sr Ti H
  positions in cartesian coordinates
  No initial velocities read in
 exchange correlation table for  LEXCH =       17
   RHO(1)=    0.500       N(1)  =     2000
   RHO(2)=  100.500       N(2)  =     4000

 VTST: version 4.1, (05/19/21)

 CHAIN: initializing optimizer
 
 OPT: Using VASP Dynamics algorithm
 CHAIN: Read ICHAIN            0
 
 POSCAR: Au O  Sr Ti H
  positions in cartesian coordinates
  No initial velocities read in
 


--------------------------------------------------------------------------------------------------------


 ion  position               nearest neighbor table
   1  0.719  0.528  0.753-  15 2.72  16 2.74  14 2.80  44 2.82   2 2.83  29 2.96  46 3.07  36 3.60

   2  0.625  0.568  0.704- 264 2.08  15 2.82   1 2.83  48 2.86  46 2.88  16 2.89  12 2.92  36 3.21
                            11 3.31   5 3.53 380 3.70
   3  0.719  0.259  0.692- 294 2.06 253 2.07  32 2.66  43 2.79  27 2.84 401 3.05 370 4.02 371 4.05

   4  0.292  0.746  0.698- 310 2.05 266 2.06   9 2.79  23 2.81  50 3.08  42 3.28  45 3.51 368 4.23
                           372 4.25
   5  0.513  0.604  0.777-  26 2.68  48 2.76  13 2.84  12 2.91  47 2.94  39 2.95  16 3.00   6 3.05
                            49 3.38  31 3.47   2 3.53
   6  0.578  0.721  0.791-  18 2.76  17 2.76  36 2.78  47 2.80  13 3.02   5 3.05  48 3.06  16 3.31

   7  0.550  0.385  0.829-  10 2.76  33 2.80  20 2.87  29 2.88  31 2.97  34 2.97  12 3.05  41 3.40

   8  0.243  0.468  0.709- 309 2.11  19 2.67  24 2.80  45 2.84  40 2.94  35 3.07 378 4.17
   9  0.282  0.661  0.766-  45 2.69  50 2.77  30 2.77   4 2.79  24 2.80
  10  0.603  0.289  0.788-   7 2.76  27 2.79  32 2.79  41 2.79  43 2.81  25 3.12  34 3.27
  11  0.515  0.483  0.678- 279 2.11 247 2.16  26 2.69  12 2.78  34 2.90  49 2.90 389 3.13   2 3.31
                            46 3.33 375 3.54  37 3.59 386 4.06
  12  0.562  0.486  0.762-  11 2.78  34 2.80  29 2.83  49 2.84  31 2.88   5 2.91   2 2.92  46 2.99
                            16 3.01   7 3.05
  13  0.463  0.695  0.831-  50 2.82   5 2.84  30 2.84  47 2.87  18 2.89  39 2.89   6 3.02
  14  0.764  0.432  0.705- 254 2.01  44 2.72  46 2.78   1 2.80  43 2.88 363 3.72 370 4.20
  15  0.734  0.617  0.693- 292 2.06 250 2.09  36 2.66   1 2.72   2 2.82  28 3.12 380 3.36 365 3.63

  16  0.635  0.586  0.799-   1 2.74  47 2.77  36 2.78  31 2.84   2 2.89   5 3.00  12 3.01  29 3.25
                             6 3.31
  17  0.584  0.785  0.713- 257 2.10   6 2.76  18 2.78  48 2.84  36 3.38  28 3.43 384 4.19 379 4.20

  18  0.483  0.778  0.759-   6 2.76  17 2.78  50 2.82  23 2.83  13 2.89  42 2.91  48 3.41
  19  0.350  0.501  0.697- 291 2.10   8 2.67  49 2.88  24 2.90  37 2.90  40 2.96  45 3.00  26 3.03
                           368 4.13 369 4.27
  20  0.431  0.372  0.815-  33 2.78  21 2.80   7 2.87  49 2.92  41 2.94  40 2.97  38 3.02  34 3.17

  21  0.373  0.298  0.756-  37 2.77  35 2.78  20 2.80  40 2.83  41 2.86  22 2.86
  22  0.441  0.228  0.697- 302 2.01 289 2.15  41 2.74  25 2.78  21 2.86  37 3.59 376 3.88 367 4.35

  23  0.390  0.816  0.707- 290 2.07  42 2.77  50 2.81   4 2.81  18 2.83 372 3.65 384 4.14
  24  0.291  0.536  0.778-   8 2.80   9 2.80  38 2.81  40 2.87  30 2.87  45 2.89  19 2.90
  25  0.556  0.208  0.711- 311 2.13  22 2.78  41 2.84  27 2.85  32 2.87  10 3.12 376 3.94
  26  0.454  0.580  0.702- 291 2.11   5 2.68  11 2.69  42 2.72  49 2.86  48 2.89  19 3.03 386 3.61

  27  0.613  0.319  0.698- 263 2.03  43 2.77  10 2.79   3 2.84  46 2.85  25 2.85  34 2.86  32 3.46
                           370 3.59 375 4.22
  28  0.725  0.756  0.693- 459 1.57 293 2.05 250 2.11  36 2.64  15 3.12 400 3.13  17 3.43 379 3.96
                           380 4.35 364 4.36
  29  0.656  0.443  0.811-  12 2.83  44 2.85  31 2.86   7 2.88  43 2.91   1 2.96  16 3.25  46 3.43

  30  0.368  0.618  0.820-   9 2.77  39 2.79  13 2.84  38 2.85  24 2.87  50 2.95
  31  0.571  0.511  0.856-  33 2.77  16 2.84  29 2.86  12 2.88  47 2.89  39 2.92   7 2.97   5 3.47

  32  0.665  0.194  0.752-   3 2.66  10 2.79  25 2.87  27 3.46  43 3.52
  33  0.473  0.451  0.880-  31 2.77  39 2.78  20 2.78   7 2.80  38 2.82
  34  0.516  0.377  0.734-  12 2.80  41 2.81  49 2.86  27 2.86  11 2.90   7 2.97  37 3.10  20 3.17
                            10 3.27  46 3.60 375 4.19
  35  0.284  0.337  0.703- 267 2.06  21 2.78  40 2.83  37 2.90   8 3.07 369 3.53 378 4.09
  36  0.678  0.683  0.752-  28 2.64  15 2.66   6 2.78  16 2.78   2 3.21  17 3.38  48 3.48   1 3.60

  37  0.398  0.382  0.690- 303 2.03 289 2.14  21 2.77  19 2.90  35 2.90  40 2.99  49 3.06  34 3.10
                           369 3.39  22 3.59  11 3.59 375 3.78
  38  0.376  0.492  0.834-  24 2.81  33 2.82  49 2.85  30 2.85  40 2.85  39 2.89  20 3.02
  39  0.463  0.573  0.864-  33 2.78  30 2.79  47 2.83  38 2.89  13 2.89  31 2.92   5 2.95
  40  0.327  0.414  0.769-  35 2.83  21 2.83  38 2.85  24 2.87   8 2.94  19 2.96  20 2.97  37 2.99
                            49 3.10
  41  0.488  0.268  0.775-  22 2.74  10 2.79  34 2.81  25 2.84  21 2.86  20 2.94   7 3.40
  42  0.423  0.697  0.700- 256 2.03  26 2.72  23 2.77  50 2.79  18 2.91  48 3.01   4 3.28 386 4.05
                           368 4.11
  43  0.701  0.347  0.756-  27 2.77   3 2.79  10 2.81  44 2.82  14 2.88  29 2.91  46 3.03  32 3.52

  44  0.774  0.431  0.795-  14 2.72  43 2.82   1 2.82  29 2.85
  45  0.257  0.592  0.695- 265 2.02 310 2.11   9 2.69   8 2.84  24 2.89  19 3.00   4 3.51 368 3.57
                           373 3.72
  46  0.647  0.442  0.697- 279 2.19  14 2.78  27 2.85   2 2.88  12 2.99  43 3.03   1 3.07  11 3.33
                            29 3.43 370 3.50  34 3.60
  47  0.565  0.640  0.862-  16 2.77   6 2.80  39 2.83  13 2.87  31 2.89   5 2.94
  48  0.546  0.665  0.701- 280 2.10   5 2.76  17 2.84   2 2.86  26 2.89  42 3.01   6 3.06  18 3.41
                            36 3.48 386 3.50
  49  0.443  0.475  0.756-  12 2.84  38 2.85  34 2.86  26 2.86  19 2.88  11 2.90  20 2.92  37 3.06
                            40 3.10   5 3.38
  50  0.373  0.737  0.778-   9 2.77  42 2.79  23 2.81  13 2.82  18 2.82  30 2.95   4 3.08
  51  0.250  0.189  0.454- 448 1.97 418 2.13 319 2.73 342 2.82 360 2.82 327 2.85
  52  0.749  0.938  0.455- 417 1.96 444 2.00 350 2.81 339 2.82 322 2.86 332 2.89
  53  0.749  0.688  0.456- 432 1.98 446 2.03 325 2.80 348 2.81 316 2.85 362 2.87
  54  0.749  0.438  0.456- 422 1.99 458 2.01 323 2.72 347 2.82 359 2.84 349 2.85
  55  0.750  0.190  0.456- 445 1.98 423 2.11 324 2.75 335 2.80 358 2.84 346 2.85
  56  0.417  0.936  0.454- 424 2.00 440 2.01 357 2.77 345 2.79 329 2.87 320 2.92
  57  0.417  0.685  0.455- 414 1.91 443 2.04 356 2.77 344 2.78 321 2.84 331 2.91
  58  0.417  0.435  0.454- 415 1.96 442 2.01 343 2.77 355 2.77 333 2.83 318 2.85
  59  0.084  0.687  0.453- 439 1.97 413 2.09 352 2.76 340 2.79 330 2.82 336 2.94
  60  0.084  0.937  0.453- 436 1.98 412 2.11 353 2.77 341 2.79 326 2.89 338 2.91
  61  0.083  0.437  0.453- 438 1.97 421 2.11 361 2.76 351 2.78 328 2.80 317 2.92
  62  0.084  0.187  0.453- 437 1.98 433 2.12 360 2.76 385 2.78 327 2.88 337 2.89
  63  0.917  0.812  0.454- 434 1.98 411 2.12 362 2.76 339 2.80 341 2.80 336 2.87
  64  0.916  0.562  0.454- 435 1.97 410 2.12 349 2.78 316 2.78 340 2.80 317 2.89
  65  0.251  0.439  0.455- 449 1.98 420 2.06 318 2.70 343 2.81 351 2.85 328 2.86
  66  0.916  0.062  0.454- 455 1.98 430 2.11 358 2.79 385 2.81 332 2.85 338 2.89
  67  0.916  0.312  0.454- 456 1.97 429 2.09 359 2.79 361 2.80 335 2.81 337 2.90
  68  0.417  0.187  0.454- 441 1.98 416 2.07 354 2.78 342 2.79 334 2.81 319 2.88
  69  0.252  0.687  0.456- 419 1.99 450 2.03 321 2.76 344 2.79 352 2.87 330 2.90
  70  0.917  0.937  0.453- 455 1.98 411 2.11 339 2.78 341 2.78 332 2.89 338 2.90
  71  0.583  0.189  0.455- 452 1.98 426 2.09 334 2.73 324 2.79 354 2.82 346 2.84
  72  0.000  0.125  0.498- 430 1.97 433 1.98 385 2.74 337 2.79 338 2.80
  73  0.584  0.810  0.455- 454 1.97 431 2.11 325 2.74 331 2.75 350 2.84 357 2.85
  74  1.000  0.373  0.498- 429 1.94 421 1.95 361 2.74 337 2.77 317 2.85
  75  1.000  0.627  0.498- 413 1.93 410 1.95 340 2.72 336 2.78 317 2.83
  76  0.333  0.125  0.498- 416 1.95 418 2.01 342 2.74 319 2.75 320 2.78 367 3.45
  77  0.000  0.875  0.500- 412 1.97 411 1.97 341 2.78 336 2.78 338 2.79
  78  0.333  0.874  0.499- 424 1.97 425 2.00 321 2.75 345 2.75 320 2.84 372 3.12
  79  0.666  0.126  0.499- 426 1.96 423 2.01 324 2.72 346 2.76 322 2.82 371 3.37
  80  0.336  0.625  0.504- 414 1.93 419 2.08 368 2.73 318 2.81 321 2.81 344 2.91
  81  0.334  0.378  0.503- 415 1.94 420 2.08 318 2.70 369 2.70 343 2.88 319 2.91
  82  0.665  0.378  0.503- 428 1.94 422 2.06 323 2.71 370 2.74 347 2.89 324 2.92
  83  0.915  0.687  0.453- 434 1.98 410 2.10 316 2.75 340 2.80 362 2.81 336 2.93
  84  0.916  0.437  0.454- 435 1.98 429 2.10 359 2.77 349 2.78 361 2.80 317 2.91
  85  0.916  0.187  0.453- 456 1.98 430 2.11 358 2.77 335 2.79 385 2.79 337 2.92
  86  0.583  0.936  0.454- 451 2.01 431 2.05 357 2.78 350 2.79 329 2.86 322 2.88
  87  0.583  0.686  0.455- 427 1.91 454 2.02 356 2.78 348 2.80 331 2.85 325 2.86
  88  0.583  0.439  0.456- 453 2.01 428 2.01 333 2.71 323 2.80 355 2.83 347 2.85
  89  0.250  0.936  0.454- 425 1.94 447 2.01 353 2.78 345 2.78 320 2.90 326 2.92
  90  0.665  0.625  0.503- 427 1.92 432 2.06 380 2.74 323 2.80 325 2.83 348 2.87
  91  0.584  0.562  0.455- 427 2.00 453 2.00 333 2.77 348 2.80 323 2.80 356 2.83
  92  0.583  0.062  0.455- 451 2.00 426 2.02 354 2.80 346 2.82 329 2.85 322 2.86
  93  0.917  0.687  0.361- 434 1.97 340 2.79 316 2.79
  94  0.917  0.437  0.361- 435 1.97 361 2.79 359 2.79
  95  0.917  0.188  0.361- 456 1.97 385 2.79 358 2.79
  96  0.583  0.938  0.361- 451 1.97 357 2.79 350 2.79
  97  0.583  0.687  0.361- 454 1.97 356 2.79 348 2.79
  98  0.583  0.437  0.361- 453 1.97 355 2.79 347 2.79
  99  0.583  0.188  0.361- 452 1.97 354 2.79 346 2.79
 100  0.250  0.938  0.361- 447 1.97 353 2.79 345 2.79
 101  0.917  0.938  0.361- 455 1.97 341 2.79 339 2.79
 102  0.250  0.687  0.361- 450 1.97 352 2.79 344 2.79
 103  0.250  0.188  0.361- 448 1.97 360 2.79 342 2.79
 104  0.750  0.938  0.361- 444 1.97 350 2.79 339 2.79
 105  0.750  0.687  0.361- 446 1.97 348 2.79 316 2.79
 106  0.750  0.437  0.361- 458 1.97 347 2.79 359 2.79
 107  0.750  0.188  0.361- 445 1.97 346 2.79 358 2.79
 108  0.417  0.938  0.361- 440 1.97 345 2.79 357 2.79
 109  0.417  0.687  0.361- 443 1.97 344 2.79 356 2.79
 110  0.417  0.437  0.361- 442 1.97 343 2.79 355 2.79
 111  0.250  0.437  0.361- 449 1.97 351 2.79 343 2.79
 112  0.083  0.063  0.361- 436 1.97 385 2.79 360 2.79
 113  0.083  0.312  0.361- 437 1.97 361 2.79 351 2.79
 114  0.083  0.563  0.361- 438 1.97 352 2.79 340 2.79
 115  0.917  0.312  0.361- 456 1.97 361 2.79 359 2.79
 116  0.917  0.063  0.361- 455 1.97 385 2.79 358 2.79
 117  0.583  0.812  0.361- 454 1.97 357 2.79 350 2.79
 118  0.583  0.563  0.361- 453 1.97 356 2.79 348 2.79
 119  0.583  0.312  0.361- 452 1.97 355 2.79 347 2.79
 120  0.583  0.063  0.361- 451 1.97 354 2.79 346 2.79
 121  0.250  0.812  0.361- 450 1.97 353 2.79 345 2.79
 122  0.250  0.563  0.361- 449 1.97 352 2.79 344 2.79
 123  0.250  0.312  0.361- 448 1.97 351 2.79 343 2.79
 124  0.250  0.063  0.361- 447 1.97 360 2.79 342 2.79
 125  0.750  0.812  0.361- 446 1.97 350 2.79 339 2.79
 126  0.750  0.563  0.361- 458 1.97 348 2.79 316 2.79
 127  0.750  0.312  0.361- 445 1.97 347 2.79 359 2.79
 128  0.750  0.063  0.361- 444 1.97 346 2.79 358 2.79
 129  0.417  0.812  0.361- 443 1.97 345 2.79 357 2.79
 130  0.417  0.563  0.361- 442 1.97 344 2.79 356 2.79
 131  0.417  0.312  0.361- 441 1.97 343 2.79 355 2.79
 132  0.417  0.063  0.361- 440 1.97 342 2.79 354 2.79
 133  0.083  0.812  0.361- 439 1.97 353 2.79 341 2.79
 134  0.417  0.188  0.361- 441 1.97 342 2.79 354 2.79
 135  0.083  0.938  0.361- 436 1.97 353 2.79 341 2.79
 136  0.083  0.687  0.361- 439 1.97 352 2.79 340 2.79
 137  0.083  0.437  0.361- 438 1.97 361 2.79 351 2.79
 138  0.833  0.500  0.407- 458 1.97 435 1.97 316 2.79 359 2.79 349 2.88
 139  0.833  0.750  0.407- 446 1.97 434 1.97 339 2.79 316 2.79 362 2.87
 140  0.084  0.062  0.454- 436 1.98 433 2.11 360 2.80 385 2.81 326 2.85 338 2.88
 141  0.083  0.312  0.454- 437 1.97 421 2.10 351 2.80 361 2.80 337 2.86 327 2.89
 142  0.084  0.562  0.454- 438 1.98 413 2.11 328 2.76 352 2.78 340 2.81 317 2.91
 143  0.083  0.812  0.454- 439 1.98 412 2.11 330 2.78 353 2.80 341 2.81 336 2.88
 144  0.417  0.062  0.455- 416 1.96 440 2.00 354 2.82 342 2.83 320 2.84 329 2.84
 145  0.415  0.311  0.457- 415 1.92 441 2.04 334 2.81 319 2.81 343 2.84 355 2.88
 146  0.416  0.559  0.458- 414 1.97 442 2.02 333 2.73 318 2.74 344 2.88 356 2.90
 147  0.417  0.810  0.455- 443 1.97 424 2.09 321 2.75 331 2.78 357 2.84 345 2.85
 148  0.750  0.064  0.453- 444 1.99 423 2.02 346 2.77 358 2.78 322 2.90 332 2.92
 149  0.747  0.314  0.455- 422 1.99 445 2.02 347 2.75 324 2.81 359 2.84 335 2.94
 150  0.748  0.563  0.454- 458 2.00 432 2.00 323 2.75 348 2.76 316 2.81 349 2.91
 151  0.749  0.812  0.454- 446 1.97 417 2.10 350 2.79 325 2.79 339 2.81 362 2.86
 152  0.250  0.062  0.454- 447 1.98 418 2.11 342 2.80 360 2.81 320 2.85 326 2.88
 153  0.915  0.312  0.547- 429 1.85 409 2.21 335 2.71 337 2.75 363 2.86 381 3.33
 154  0.252  0.314  0.454- 420 1.97 448 2.01 343 2.74 319 2.78 351 2.82 327 2.96
 155  0.252  0.564  0.454- 419 1.99 449 2.01 344 2.75 318 2.76 352 2.81 328 2.92
 156  0.250  0.810  0.456- 450 1.98 425 2.07 321 2.76 330 2.82 345 2.84 353 2.85
 157  0.833  0.250  0.407- 445 1.97 456 1.97 359 2.79 358 2.79 335 2.89
 158  0.584  0.314  0.454- 428 1.96 452 2.02 347 2.76 355 2.79 334 2.85 324 2.87
 159  0.833  0.000  0.407- 444 1.97 455 1.97 358 2.79 339 2.79 332 2.98
 160  0.500  0.500  0.407- 453 1.97 442 1.97 355 2.79 356 2.79 333 2.80
 161  0.083  0.188  0.361- 437 1.97 385 2.79 360 2.79
 162  0.000  0.000  0.407- 455 1.97 436 1.97 385 2.79 341 2.79 338 2.98
 163  0.000  0.250  0.407- 456 1.97 437 1.97 361 2.79 385 2.79 337 2.97
 164  0.000  0.500  0.407- 435 1.97 438 1.97 340 2.79 361 2.79 317 3.00
 165  0.000  0.750  0.407- 434 1.97 439 1.97 341 2.79 340 2.79 336 2.99
 166  0.333  0.000  0.407- 440 1.97 447 1.97 342 2.79 345 2.79 320 2.96
 167  0.333  0.250  0.407- 441 1.97 448 1.97 343 2.79 342 2.79 319 2.87
 168  0.333  0.500  0.407- 442 1.97 449 1.97 343 2.79 344 2.79 318 2.82
 169  0.333  0.750  0.407- 443 1.97 450 1.97 345 2.79 344 2.79 321 2.85
 170  0.667  0.000  0.407- 444 1.97 451 1.97 346 2.79 350 2.79 322 2.96
 171  0.667  0.250  0.407- 445 1.97 452 1.97 347 2.79 346 2.79 324 2.88
 172  0.667  0.500  0.407- 458 1.97 453 1.97 347 2.79 348 2.79 323 2.81
 173  0.667  0.750  0.407- 446 1.97 454 1.97 350 2.79 348 2.79 325 2.87
 174  0.167  0.000  0.407- 447 1.97 436 1.97 360 2.79 353 2.79 326 2.98
 175  0.167  0.250  0.407- 448 1.97 437 1.97 351 2.79 360 2.79 327 2.98
 176  0.167  0.500  0.407- 449 1.97 438 1.97 351 2.79 352 2.79 328 2.86
 177  0.167  0.750  0.407- 450 1.97 439 1.97 353 2.79 352 2.79 330 2.90
 178  0.500  0.000  0.407- 451 1.97 440 1.97 354 2.79 357 2.79 329 2.96
 179  0.500  0.250  0.407- 452 1.97 441 1.97 355 2.79 354 2.79 334 2.85
 180  0.500  0.750  0.407- 454 1.97 443 1.97 357 2.79 356 2.79 331 2.91
 181  0.167  0.124  0.499- 418 1.96 433 2.00 326 2.76 360 2.77 327 2.77
 182  0.918  0.063  0.547- 430 1.84 387 2.20 338 2.70 332 2.72 315 3.21 383 3.25
 183  0.168  0.873  0.500- 425 1.93 412 2.02 330 2.72 353 2.79 326 2.86 374 3.54
 184  0.252  0.188  0.547- 418 1.87 395 2.12 319 2.65 327 2.72 367 3.13 377 3.33
 185  0.750  0.935  0.547- 417 1.82 402 2.26 322 2.75 332 2.77 379 2.99 364 3.15
 186  0.750  0.683  0.551- 432 1.94 400 1.98 380 2.66 325 2.90 362 2.91 365 2.92
 187  0.752  0.435  0.549- 422 1.93 399 2.04 370 2.75 349 2.81 323 2.83 363 2.97
 188  0.423  0.444  0.546- 408 1.88 415 2.06 333 2.61 318 2.85 375 2.87 369 3.12
 189  0.422  0.687  0.547- 414 1.94 398 2.01 331 2.69 386 2.76 321 2.86 368 2.90
 190  0.748  0.184  0.551- 423 1.94 401 1.95 324 2.79 335 2.89 371 2.99 383 3.17
 191  0.416  0.937  0.546- 424 1.85 396 2.25 320 2.71 329 2.72 372 2.88 384 3.09
 192  0.084  0.939  0.546- 412 1.84 406 2.18 326 2.67 338 2.67 374 3.27 366 3.36
 193  0.416  0.191  0.546- 397 1.85 416 2.03 319 2.72 334 2.73 376 3.10 367 3.25
 194  0.087  0.690  0.545- 413 1.85 405 2.22 330 2.62 336 2.72 373 2.79
 195  0.082  0.439  0.545- 421 1.84 404 2.23 317 2.66 328 2.68 378 3.08 381 3.34
 196  0.084  0.189  0.546- 433 1.85 403 2.19 327 2.64 337 2.67 315 3.30 377 3.36
 197  0.499  0.125  0.500- 416 1.98 426 1.99 334 2.73 354 2.78 329 2.82 376 3.19
 198  0.999  0.501  0.594- 457 1.95 404 1.95 317 2.62 381 2.92 382 3.07
 199  1.000  0.754  0.592- 405 1.95 407 1.96 336 2.57 366 2.84 382 3.29
 200  0.335  0.254  0.593- 397 1.90 395 2.06 369 2.67 319 2.70 367 3.07
 201  0.334  1.000  0.592- 396 2.00 394 2.03 320 2.59 372 2.73 367 2.75
 202  1.000  0.999  0.593- 387 2.00 406 2.00 338 2.59 315 2.88 366 2.91
 203  0.001  0.250  0.592- 409 1.95 403 1.99 337 2.58 381 2.94 315 2.95
 204  0.333  0.497  0.591- 408 1.85 390 2.16 318 2.70 369 2.75 368 2.85
 205  0.335  0.740  0.591- 398 1.97 391 2.03 368 2.58 321 2.68 372 3.12
 206  0.663  0.247  0.591- 392 1.89 401 2.14 324 2.63 370 2.79 371 2.81
 207  0.666  0.000  0.592- 393 2.00 402 2.02 322 2.58 379 2.75 371 2.84
 208  0.665  0.745  0.591- 388 1.92 400 2.07 380 2.61 325 2.66 379 3.05
 209  0.667  0.493  0.591- 389 1.81 399 2.12 323 2.70 370 2.71 380 3.02
 210  0.167  0.998  0.592- 394 1.98 406 2.02 326 2.57 377 2.90 374 2.91
 211  0.169  0.249  0.593- 395 1.94 403 2.03 327 2.61 378 2.77 377 2.96
 212  0.171  0.750  0.595- 391 1.88 405 2.15 330 2.75 373 2.76 374 2.83
 213  0.248  0.436  0.549- 390 1.93 420 1.98 369 2.65 318 2.81 328 2.83 378 3.05
 214  0.165  0.503  0.588- 390 1.83 404 2.05 328 2.57 373 2.80 378 3.00
 215  0.249  0.683  0.552- 391 1.96 419 1.97 368 2.75 373 2.89 330 2.89 321 2.93
 216  0.581  0.186  0.549- 426 1.94 392 1.98 334 2.74 324 2.83 376 2.93 371 3.06
 217  0.916  0.813  0.547- 411 1.84 407 2.19 362 2.68 336 2.71 364 3.21 366 3.29
 218  0.917  0.563  0.546- 410 1.84 457 2.22 317 2.68 349 2.70 365 2.92
 219  0.581  0.560  0.549- 389 1.89 427 2.09 386 2.69 333 2.75 380 2.87 323 2.87
 220  0.585  0.814  0.550- 431 1.92 388 2.03 325 2.76 331 2.77 384 3.03 379 3.04
 221  0.583  0.312  0.546- 428 1.90 392 2.11 334 2.74 324 2.76 375 2.77 370 2.88
 222  0.583  0.063  0.547- 426 1.85 393 2.22 322 2.72 329 2.72 376 2.94 371 3.07
 223  0.253  0.813  0.551- 391 1.82 425 2.08 321 2.79 372 2.87 330 2.89 374 3.17
 224  0.252  0.560  0.545- 419 1.92 390 2.04 318 2.65 328 2.79 368 2.86 373 3.17
 225  0.250  0.314  0.546- 420 1.85 395 2.30 369 2.65 327 2.72 319 2.73 378 3.05
 226  0.251  0.062  0.547- 418 1.84 394 2.24 320 2.69 326 2.73 367 3.03 377 3.26
 227  0.749  0.810  0.547- 400 1.85 417 2.02 325 2.69 362 2.77 379 3.13 364 3.25
 228  0.747  0.559  0.545- 432 1.95 399 1.99 323 2.63 349 2.80 380 2.84 365 3.20
 229  0.413  0.812  0.548- 424 1.96 398 1.97 321 2.70 331 2.79 372 2.90 384 3.13
 230  0.748  0.060  0.545- 423 1.83 402 2.21 322 2.63 332 2.68 371 3.16 383 3.36
 231  0.748  0.311  0.548- 422 1.98 401 1.99 370 2.66 324 2.74 335 2.84 363 3.02
 232  0.416  0.319  0.553- 397 1.96 415 1.98 375 2.66 369 2.73 334 2.98 319 2.98
 233  0.420  0.565  0.555- 408 1.89 414 2.13 386 2.65 368 2.71 333 2.91 318 3.04
 234  0.417  0.065  0.547- 416 1.84 396 2.25 320 2.74 329 2.76 376 2.93 367 3.08
 235  0.085  0.813  0.547- 412 1.84 405 2.18 330 2.68 336 2.74 374 3.16 366 3.32
 236  0.083  0.564  0.546- 413 1.84 404 2.21 317 2.70 328 2.73 373 2.83
 237  0.086  0.313  0.547- 421 1.84 403 2.25 327 2.68 337 2.76 378 2.89 381 3.34
 238  0.082  0.063  0.548- 433 1.84 406 2.22 338 2.70 326 2.71 315 3.18 377 3.28
 239  0.916  0.939  0.546- 411 1.84 387 2.21 332 2.65 338 2.70 364 3.21 366 3.33
 240  0.914  0.689  0.545- 410 1.84 407 2.22 362 2.65 336 2.71 365 2.88
 241  0.584  0.938  0.546- 431 1.84 393 2.23 322 2.68 329 2.70 379 3.04 384 3.06
 242  0.917  0.189  0.546- 430 1.85 409 2.17 335 2.66 337 2.68 383 3.30 315 3.31
 243  0.916  0.437  0.546- 429 1.85 457 2.24 349 2.68 317 2.70 363 2.93 381 3.34
 244  0.576  0.436  0.551- 389 1.95 428 2.04 375 2.63 333 2.74 370 2.96 323 3.02
 245  0.580  0.686  0.547- 427 1.92 388 2.14 386 2.65 331 2.73 380 2.80 325 2.85
 246  0.252  0.937  0.545- 425 1.83 394 2.22 320 2.67 326 2.73 372 2.93 374 3.31
 247  0.498  0.504  0.609- 408 2.10  11 2.16 389 2.25 386 2.73 375 3.01 333 3.26
 248  0.499  0.253  0.590- 397 1.99 392 2.04 375 2.64 334 2.65 376 2.97
 249  0.500  1.000  0.591- 396 2.00 393 2.01 329 2.57 376 2.75 384 2.81
 250  0.752  0.688  0.650-  15 2.09  28 2.11 400 2.26 365 2.81 380 2.93
 251  0.749  0.937  0.640- 402 1.80 364 2.50 379 2.50
 252  0.253  0.186  0.641- 395 1.74 367 2.52 377 2.55
 253  0.746  0.194  0.647- 401 1.99   3 2.07 371 2.68 383 2.71
 254  0.755  0.434  0.638- 399 1.98  14 2.01 363 2.59 370 2.76
 255  0.417  0.935  0.640- 396 1.79 384 2.53 372 2.58
 256  0.421  0.676  0.634-  42 2.03 398 2.04 386 2.56 368 2.62
 257  0.587  0.810  0.645- 388 1.90  17 2.10 379 2.66 384 2.73
 258  0.916  0.063  0.642- 387 1.80 383 2.49 315 2.50
 259  0.912  0.562  0.642- 457 1.79 382 2.46 365 2.54
 260  0.915  0.312  0.639- 409 1.80 381 2.50 363 2.52
 261  0.913  0.813  0.641- 407 1.79 364 2.49 366 2.52
 262  0.582  0.065  0.640- 393 1.79 371 2.51 376 2.53
 263  0.583  0.319  0.634- 392 1.96  27 2.03 375 2.54 370 2.67
 264  0.593  0.565  0.639- 389 1.97   2 2.08 380 2.63 386 2.86
 265  0.248  0.574  0.629- 390 2.00  45 2.02 373 2.55 368 2.55
 266  0.262  0.799  0.647- 391 1.96   4 2.06 372 2.81 374 2.94
 267  0.250  0.316  0.641- 395 1.94  35 2.06 378 2.59 369 2.65
 268  0.251  0.059  0.642- 394 1.79 367 2.49 377 2.50
 269  0.917  0.563  0.361- 435 1.97 340 2.79 316 2.79
 270  0.499  0.374  0.500- 415 1.97 428 2.00 355 2.78 334 2.81 333 2.81 375 2.86
 271  0.500  0.873  0.501- 424 1.97 431 2.00 331 2.69 357 2.81 329 2.82 384 3.28
 272  0.500  0.621  0.500- 414 1.98 427 1.99 333 2.71 356 2.79 386 2.81 331 2.94
 273  0.832  0.623  0.500- 432 1.90 410 2.04 349 2.76 316 2.79 362 2.87 365 3.15
 274  0.833  0.874  0.499- 417 1.95 411 2.01 362 2.75 339 2.75 332 2.82
 275  0.832  0.373  0.500- 422 1.90 429 2.04 359 2.78 335 2.79 349 2.83 363 3.13
 276  0.833  0.125  0.500- 423 1.95 430 2.01 335 2.77 332 2.78 358 2.78
 277  0.167  0.376  0.498- 420 1.90 421 2.02 351 2.72 328 2.76 327 2.87 378 3.31
 278  0.168  0.624  0.500- 419 1.90 413 2.06 328 2.78 352 2.79 330 2.84 373 3.06
 279  0.582  0.438  0.646- 389 2.11  11 2.11  46 2.19 375 2.86 370 3.01
 280  0.580  0.685  0.638- 388 1.90  48 2.10 386 2.60 380 2.76
 281  0.917  0.187  0.641- 409 1.79 383 2.49 315 2.52
 282  0.582  0.935  0.640- 393 1.80 384 2.50 379 2.51
 283  0.831  0.749  0.592- 400 1.86 407 2.09 362 2.67 365 2.76 364 2.94
 284  0.832  0.248  0.591- 401 1.84 409 2.12 335 2.65 363 2.81 383 2.87
 285  0.833  0.503  0.589- 399 1.83 457 2.06 349 2.58 365 2.81 363 2.96
 286  0.832  0.002  0.592- 402 1.99 387 2.02 332 2.58 383 2.87 364 2.90
 287  0.499  0.756  0.592- 398 1.94 388 2.05 331 2.66 384 2.74 386 2.92
 288  0.418  0.065  0.640- 396 1.80 367 2.51 376 2.54
 289  0.427  0.305  0.655-  37 2.14  22 2.15 397 2.31 375 2.92 369 3.40
 290  0.412  0.812  0.640- 398 1.95  23 2.07 372 2.59 384 2.69
 291  0.399  0.551  0.652-  19 2.10  26 2.11 408 2.15 368 2.81 386 3.46
 292  0.752  0.566  0.637- 399 1.90  15 2.06 365 2.64 380 2.76
 293  0.746  0.810  0.641- 400 1.96  28 2.05 379 2.61 364 2.62
 294  0.747  0.312  0.640- 401 2.00   3 2.06 370 2.62 363 2.75
 295  0.747  0.067  0.639- 402 1.80 371 2.47 383 2.48
 296  0.084  0.312  0.640- 403 1.80 381 2.49 378 2.50
 297  0.666  0.874  0.499- 431 1.96 417 2.00 325 2.73 350 2.77 322 2.81 379 3.33
 298  0.087  0.562  0.642- 404 1.80 382 2.47 373 2.54
 299  0.084  0.060  0.642- 406 1.80 377 2.49 315 2.50
 300  0.086  0.437  0.639- 404 1.80 378 2.51 381 2.52
 301  0.084  0.186  0.641- 403 1.79 315 2.50 377 2.50
 302  0.419  0.188  0.640- 397 2.00  22 2.01 376 2.64 367 2.68
 303  0.415  0.419  0.630-  37 2.03 408 2.07 375 2.54 369 2.59
 304  0.084  0.935  0.641- 406 1.80 374 2.48 366 2.49
 305  0.083  0.687  0.640- 405 1.80 382 2.45 373 2.52
 306  0.913  0.436  0.639- 457 1.80 363 2.52 381 2.53
 307  0.916  0.688  0.640- 407 1.80 382 2.45 365 2.51
 308  0.915  0.937  0.641- 387 1.80 364 2.47 366 2.50
 309  0.240  0.442  0.642- 390 1.89   8 2.11 378 2.61 369 2.93
 310  0.254  0.677  0.664-   4 2.05  45 2.11 368 3.03 373 3.13
 311  0.579  0.190  0.644- 392 1.91  25 2.13 376 2.67 371 2.71
 312  0.252  0.930  0.637- 394 1.81 374 2.47 372 2.49
 313  0.084  0.812  0.642- 405 1.79 374 2.48 366 2.53
 314  0.917  0.812  0.361- 434 1.97 341 2.79 339 2.79
 315  0.001  0.123  0.619- 299 2.50 301 2.50 258 2.50 281 2.52 202 2.88 203 2.95 238 3.18 182 3.21
                           196 3.30 242 3.31 387 3.42 409 3.43 406 3.43 403 3.45 433 3.90 430 3.91
 316  0.833  0.625  0.407-  83 2.75  64 2.78 273 2.79 126 2.79 105 2.79 269 2.79  93 2.79 138 2.79
                           139 2.79 150 2.81  53 2.85 458 3.42 446 3.42 435 3.42 434 3.42 432 3.45
 317  0.999  0.501  0.507- 198 2.62 195 2.66 218 2.68 236 2.70 243 2.70  75 2.83  74 2.85  64 2.89
                           142 2.91  84 2.91  61 2.92 164 3.00 410 3.39 413 3.39 429 3.41 421 3.42
 318  0.331  0.499  0.501- 224 2.65  81 2.70  65 2.70 204 2.70 146 2.74 155 2.76 213 2.81  80 2.81
                           168 2.82 188 2.85  58 2.85 233 3.04 408 3.35 449 3.41 419 3.42 415 3.44
 319  0.330  0.248  0.503- 184 2.65 200 2.70 193 2.72  51 2.73 225 2.73  76 2.75 154 2.78 145 2.81
                           167 2.87  68 2.88  81 2.91 232 2.98 397 3.32 418 3.36 420 3.42 448 3.44
 320  0.333  0.001  0.506- 201 2.59 246 2.67 226 2.69 191 2.71 234 2.74  76 2.78 144 2.84  78 2.84
                           152 2.85  89 2.90  56 2.92 166 2.96 416 3.33 425 3.38 418 3.40 424 3.41
 321  0.334  0.751  0.502- 205 2.68 229 2.70 147 2.75  78 2.75 156 2.76  69 2.76 223 2.79  80 2.81
                            57 2.84 169 2.85 189 2.86 215 2.93 391 3.36 414 3.41 398 3.42 424 3.42
 322  0.666  1.000  0.506- 207 2.58 230 2.63 241 2.68 222 2.72 185 2.75 297 2.81  79 2.82  92 2.86
                            52 2.86  86 2.88 148 2.90 170 2.96 417 3.37 426 3.38 431 3.38 423 3.39
 323  0.669  0.500  0.501- 228 2.63 209 2.70  82 2.71  54 2.72 150 2.75  88 2.80  91 2.80  90 2.80
                           172 2.81 187 2.83 219 2.87 244 3.02 389 3.34 458 3.41 422 3.41 432 3.41
 324  0.667  0.248  0.503- 206 2.63  79 2.72 231 2.74  55 2.75 221 2.76  71 2.79 190 2.79 149 2.81
                           216 2.83 158 2.87 171 2.88  82 2.92 426 3.41 401 3.42 423 3.43 428 3.43
 325  0.666  0.752  0.503- 208 2.66 227 2.69 297 2.73  73 2.74 220 2.76 151 2.79  53 2.80  90 2.83
                           245 2.85  87 2.86 173 2.87 186 2.90 400 3.36 431 3.39 427 3.40 417 3.46
 326  0.166  0.001  0.506- 210 2.57 192 2.67 238 2.71 226 2.73 246 2.73 181 2.76 140 2.85 183 2.86
                           152 2.88  60 2.89  89 2.92 174 2.98 425 3.37 418 3.38 433 3.39 412 3.44
 327  0.166  0.248  0.506- 211 2.61 196 2.64 237 2.68 225 2.72 184 2.72 181 2.77  51 2.85 277 2.87
                            62 2.88 141 2.89 154 2.96 175 2.98 420 3.37 418 3.39 433 3.39 421 3.46
 328  0.163  0.500  0.502- 214 2.57 195 2.68 236 2.73 142 2.76 277 2.76 278 2.78 224 2.79  61 2.80
                           213 2.83  65 2.86 176 2.86 155 2.92 390 3.33 421 3.40 419 3.42 413 3.43
 329  0.500  0.999  0.506- 249 2.57 241 2.70 191 2.72 222 2.72 234 2.76 271 2.82 197 2.82 144 2.84
                            92 2.85  86 2.86  56 2.87 178 2.96 424 3.38 416 3.39 431 3.39 426 3.40
 330  0.165  0.751  0.504- 194 2.62 235 2.68 183 2.72 212 2.75 143 2.78 156 2.82  59 2.82 278 2.84
                           215 2.89 223 2.89  69 2.90 177 2.90 391 3.34 412 3.37 413 3.43 419 3.45
 331  0.501  0.753  0.504- 287 2.66 271 2.69 189 2.69 245 2.73  73 2.75 220 2.77 147 2.78 229 2.79
                            87 2.85  57 2.91 180 2.91 272 2.94 398 3.37 431 3.38 424 3.41 427 3.42
 332  0.834  0.001  0.506- 286 2.58 239 2.65 230 2.68 182 2.72 185 2.77 276 2.78 274 2.82  66 2.85
                            70 2.89  52 2.89 148 2.92 159 2.98 423 3.36 417 3.36 430 3.41 411 3.42
 333  0.501  0.500  0.500- 188 2.61 272 2.71  88 2.71 146 2.73 244 2.74 219 2.75  91 2.77 160 2.80
                           270 2.81  58 2.83 233 2.91 247 3.26 453 3.41 428 3.43 442 3.44 415 3.45
 334  0.501  0.248  0.502- 248 2.65  71 2.73 197 2.73 193 2.73 216 2.74 221 2.74  68 2.81 270 2.81
                           145 2.81 179 2.85 158 2.85 232 2.98 397 3.37 426 3.40 428 3.42 452 3.45
 335  0.835  0.248  0.503- 284 2.65 242 2.66 153 2.71 276 2.77  85 2.79 275 2.79  55 2.80  67 2.81
                           231 2.84 190 2.89 157 2.89 149 2.94 401 3.34 430 3.37 429 3.43 422 3.45
 336  1.000  0.751  0.507- 199 2.57 240 2.71 217 2.71 194 2.72 235 2.74  75 2.78  77 2.78  63 2.87
                           143 2.88  83 2.93  59 2.94 165 2.99 413 3.38 410 3.40 412 3.40 411 3.40
 337  0.001  0.250  0.506- 203 2.58 196 2.67 242 2.68 153 2.75 237 2.76  74 2.77  72 2.79 141 2.86
                            62 2.89  67 2.90  85 2.92 163 2.97 421 3.39 429 3.39 433 3.40 430 3.41
 338  0.000  1.000  0.506- 202 2.59 192 2.67 239 2.70 182 2.70 238 2.70  77 2.79  72 2.80 140 2.88
                            66 2.89  70 2.90  60 2.91 162 2.98 411 3.40 430 3.40 412 3.41 433 3.41
 339  0.833  0.875  0.407- 274 2.75  70 2.78 125 2.79 104 2.79 314 2.79 101 2.79 139 2.79 159 2.79
                            63 2.80 151 2.81  52 2.82 446 3.42 434 3.42 444 3.42 455 3.42 417 3.49
 340  0.000  0.625  0.407-  75 2.72 269 2.79  93 2.79 114 2.79 136 2.79 164 2.79 165 2.79  59 2.79
                            83 2.80  64 2.80 142 2.81 435 3.42 434 3.42 438 3.42 439 3.42 413 3.53
 341  0.000  0.875  0.407-  77 2.78  70 2.78  60 2.79 314 2.79 133 2.79 101 2.79 135 2.79 165 2.79
                           162 2.79  63 2.80 143 2.81 434 3.42 439 3.42 455 3.42 436 3.42 411 3.58
 342  0.333  0.125  0.407-  76 2.74 132 2.79 134 2.79 124 2.79 103 2.79 166 2.79 167 2.79  68 2.79
                           152 2.80  51 2.82 144 2.83 440 3.42 441 3.42 447 3.42 448 3.42 416 3.47
 343  0.333  0.375  0.407- 154 2.74  58 2.77 110 2.79 131 2.79 111 2.79 123 2.79 167 2.79 168 2.79
                            65 2.81 145 2.84  81 2.88 441 3.42 442 3.42 448 3.42 449 3.42 415 3.43
 344  0.333  0.625  0.407- 155 2.75  57 2.78 130 2.79 109 2.79 122 2.79 102 2.79 168 2.79 169 2.79
                            69 2.79 146 2.88  80 2.91 442 3.42 443 3.42 449 3.42 450 3.42 414 3.44
 345  0.333  0.875  0.407-  78 2.75  89 2.78  56 2.79 129 2.79 121 2.79 108 2.79 100 2.79 169 2.79
                           166 2.79 156 2.84 147 2.85 443 3.42 450 3.42 440 3.42 447 3.42 425 3.49
 346  0.667  0.125  0.407-  79 2.76 148 2.77 128 2.79 107 2.79 120 2.79  99 2.79 170 2.79 171 2.79
                            92 2.82  71 2.84  55 2.85 444 3.42 445 3.42 451 3.42 452 3.42 426 3.53
 347  0.667  0.375  0.407- 149 2.75 158 2.76 106 2.79 127 2.79  98 2.79 119 2.79 171 2.79 172 2.79
                            54 2.82  88 2.85  82 2.89 445 3.42 458 3.42 453 3.42 452 3.42 428 3.47
 348  0.667  0.625  0.407- 150 2.76 126 2.79 105 2.79 118 2.79  97 2.79 172 2.79 173 2.79  91 2.80
                            87 2.80  53 2.81  90 2.87 458 3.42 446 3.42 453 3.42 454 3.42 427 3.43
 349  0.836  0.500  0.503- 285 2.58 243 2.68 218 2.70 273 2.76  64 2.78  84 2.78 228 2.80 187 2.81
                           275 2.83  54 2.85 138 2.88 150 2.91 399 3.36 422 3.41 410 3.41 432 3.41
 350  0.667  0.875  0.407- 297 2.77 151 2.79 125 2.79 104 2.79 117 2.79  96 2.79 173 2.79 170 2.79
                            86 2.79  52 2.81  73 2.84 446 3.42 454 3.42 444 3.42 451 3.42 417 3.51
 351  0.167  0.375  0.407- 277 2.72  61 2.78 111 2.79 137 2.79 123 2.79 113 2.79 176 2.79 175 2.79
                           141 2.80 154 2.82  65 2.85 448 3.42 449 3.42 437 3.42 438 3.42 420 3.44
 352  0.167  0.625  0.407-  59 2.76 142 2.78 278 2.79 122 2.79 102 2.79 114 2.79 136 2.79 176 2.79
                           177 2.79 155 2.81  69 2.87 449 3.42 450 3.42 438 3.42 439 3.42 419 3.46
 353  0.167  0.875  0.407-  60 2.77  89 2.78 183 2.79 121 2.79 133 2.79 100 2.79 135 2.79 177 2.79
                           174 2.79 143 2.80 156 2.85 450 3.42 439 3.42 447 3.42 436 3.42 425 3.47
 354  0.500  0.125  0.407-  68 2.78 197 2.78 120 2.79  99 2.79 132 2.79 134 2.79 178 2.79 179 2.79
                            92 2.80  71 2.82 144 2.82 451 3.42 452 3.42 440 3.42 441 3.42 416 3.50
 355  0.500  0.375  0.407-  58 2.77 270 2.78  98 2.79 119 2.79 110 2.79 131 2.79 179 2.79 160 2.79
                           158 2.79  88 2.83 145 2.88 452 3.42 453 3.42 441 3.42 442 3.42 415 3.44
 356  0.500  0.625  0.407-  57 2.77  87 2.78 118 2.79  97 2.79 130 2.79 109 2.79 160 2.79 180 2.79
                           272 2.79  91 2.83 146 2.90 453 3.42 454 3.42 442 3.42 443 3.42 414 3.44
 357  0.500  0.875  0.407-  56 2.77  86 2.78 117 2.79 129 2.79  96 2.79 108 2.79 180 2.79 178 2.79
                           271 2.81 147 2.84  73 2.85 454 3.42 443 3.42 451 3.42 440 3.42 424 3.52
 358  0.833  0.125  0.407-  85 2.77 276 2.78 148 2.78 128 2.79 107 2.79 116 2.79  95 2.79 159 2.79
                           157 2.79  66 2.79  55 2.84 444 3.42 445 3.42 455 3.42 456 3.42 423 3.53
 359  0.833  0.375  0.407-  84 2.77 275 2.78  67 2.79 106 2.79 127 2.79  94 2.79 115 2.79 157 2.79
                           138 2.79 149 2.84  54 2.84 445 3.42 458 3.42 456 3.42 435 3.42 422 3.45
 360  0.167  0.125  0.407-  62 2.76 181 2.77 124 2.79 103 2.79 112 2.79 161 2.79 174 2.79 175 2.79
                           140 2.80 152 2.81  51 2.82 447 3.42 448 3.42 436 3.42 437 3.42 418 3.57
 361  0.000  0.375  0.407-  74 2.74  61 2.76  94 2.79 115 2.79 137 2.79 113 2.79 163 2.79 164 2.79
                            84 2.80 141 2.80  67 2.80 435 3.42 456 3.42 438 3.42 437 3.42 429 3.54
 362  0.836  0.752  0.503- 240 2.65 283 2.67 217 2.68 274 2.75  63 2.76 227 2.77  83 2.81 151 2.86
                           273 2.87  53 2.87 139 2.87 186 2.91 400 3.31 411 3.37 410 3.43 432 3.45
 363  0.837  0.372  0.604- 306 2.52 260 2.52 254 2.59 294 2.75 284 2.81 153 2.86 243 2.93 285 2.96
                           187 2.97 231 3.02 275 3.13 409 3.39 401 3.42 457 3.45 399 3.48 429 3.52
 364  0.832  0.877  0.617- 308 2.47 261 2.49 251 2.50 293 2.62 286 2.90 283 2.94 185 3.15 239 3.21
                           217 3.21 227 3.25 387 3.42 402 3.43 400 3.44 407 3.49 411 3.87 417 3.92
 365  0.839  0.627  0.605- 307 2.51 259 2.54 292 2.64 283 2.76 285 2.81 250 2.81 240 2.88 186 2.92
                           218 2.92 273 3.15 228 3.20 407 3.34 457 3.39 399 3.43 400 3.48 410 3.50
 366  0.999  0.875  0.622- 304 2.49 308 2.50 261 2.52 313 2.53 199 2.84 202 2.91 217 3.29 235 3.32
                           239 3.33 192 3.36 407 3.40 405 3.42 406 3.45 387 3.46 364 3.94 411 3.96
 367  0.332  0.120  0.613- 268 2.49 288 2.51 252 2.52 302 2.68 201 2.75 226 3.03 200 3.07 234 3.08
                           184 3.13 193 3.25 394 3.36 396 3.36 395 3.43  76 3.45 397 3.55 418 3.75
 368  0.334  0.624  0.595- 265 2.55 205 2.58 256 2.62 233 2.71  80 2.73 215 2.75 291 2.81 204 2.85
                           224 2.86 189 2.90 310 3.03 408 3.37 398 3.43 414 3.43 419 3.45 391 3.49
 369  0.326  0.374  0.593- 303 2.59 225 2.65 267 2.65 213 2.65 200 2.67  81 2.70 232 2.73 204 2.75
                           309 2.93 188 3.12 420 3.29  37 3.39 289 3.40 395 3.40 390 3.40 408 3.43
 370  0.671  0.372  0.594- 294 2.62 231 2.66 263 2.67 209 2.71  82 2.74 187 2.75 254 2.76 206 2.79
                           221 2.88 244 2.96 279 3.01 422 3.36 401 3.39 428 3.45 389 3.45 392 3.46
 371  0.665  0.124  0.612- 295 2.47 262 2.51 253 2.68 311 2.71 206 2.81 207 2.84 190 2.99 216 3.06
                           222 3.07 230 3.16  79 3.37 392 3.37 402 3.39 393 3.40 401 3.50 426 3.75
 372  0.335  0.879  0.603- 312 2.49 255 2.58 290 2.59 201 2.73 266 2.81 223 2.87 191 2.88 229 2.90
                           246 2.93 205 3.12  78 3.12 394 3.33 396 3.34 391 3.47 398 3.48 424 3.54
 373  0.159  0.627  0.602- 305 2.52 298 2.54 265 2.55 212 2.76 194 2.79 214 2.80 236 2.83 215 2.89
                           278 3.06 310 3.13 224 3.17 405 3.32 404 3.37 413 3.42 390 3.51 391 3.54
 374  0.166  0.873  0.618- 312 2.47 313 2.48 304 2.48 212 2.83 210 2.91 266 2.94 235 3.16 223 3.17
                           192 3.27 246 3.31 405 3.42 391 3.43 394 3.44 406 3.45 183 3.54 412 3.88
 375  0.502  0.371  0.595- 303 2.54 263 2.54 244 2.63 248 2.64 232 2.66 221 2.77 279 2.86 270 2.86
                           188 2.87 289 2.92 247 3.01 392 3.39 428 3.39 397 3.43 415 3.48 408 3.53
 376  0.500  0.122  0.606- 262 2.53 288 2.54 302 2.64 311 2.67 249 2.75 216 2.93 234 2.93 222 2.94
                           248 2.97 193 3.10 197 3.19 393 3.34 396 3.35 392 3.44 397 3.51 426 3.62
 377  0.168  0.122  0.622- 299 2.49 268 2.50 301 2.50 252 2.55 210 2.90 211 2.96 226 3.26 238 3.28
                           184 3.33 196 3.36 395 3.41 394 3.43 406 3.45 403 3.48 367 3.89 418 3.95
 378  0.163  0.372  0.608- 296 2.50 300 2.51 267 2.59 309 2.61 211 2.77 237 2.89 214 3.00 213 3.05
                           225 3.05 195 3.08 277 3.31 403 3.34 390 3.40 395 3.47 404 3.48 421 3.61
 379  0.667  0.879  0.610- 251 2.50 282 2.51 293 2.61 257 2.66 207 2.75 185 2.99 220 3.04 241 3.04
                           208 3.05 227 3.13 297 3.33 393 3.35 402 3.37 388 3.46 400 3.53 431 3.70
 380  0.667  0.628  0.594- 208 2.61 264 2.63 186 2.66  90 2.74 292 2.76 280 2.76 245 2.80 228 2.84
                           219 2.87 250 2.93 209 3.02  15 3.36 389 3.36 388 3.37 432 3.41 427 3.42
 381  1.000  0.375  0.622- 296 2.49 260 2.50 300 2.52 306 2.53 198 2.92 203 2.94 153 3.33 243 3.34
                           237 3.34 195 3.34 409 3.45 404 3.45 457 3.46 403 3.50 378 3.89 363 3.89
 382  1.000  0.622  0.642- 305 2.45 307 2.45 259 2.46 298 2.47 198 3.07 199 3.29 457 3.52 404 3.52
                           405 3.65 407 3.65 373 3.97 365 3.97 317 4.88 336 4.98
 383  0.834  0.125  0.620- 295 2.48 258 2.49 281 2.49 253 2.71 286 2.87 284 2.87 190 3.17 182 3.25
                           242 3.30 230 3.36 401 3.42 402 3.43 387 3.44 409 3.47 430 3.94 315 3.96
 384  0.500  0.876  0.610- 282 2.50 255 2.53 290 2.69 257 2.73 287 2.74 249 2.81 220 3.03 241 3.06
                           191 3.09 229 3.13 271 3.28 393 3.39 396 3.40 388 3.45 398 3.47 431 3.70
 385  0.000  0.125  0.407-  72 2.74  62 2.78 116 2.79  95 2.79 112 2.79 161 2.79 162 2.79 163 2.79
                            85 2.79  66 2.81 140 2.81 455 3.42 456 3.42 436 3.42 437 3.42 430 3.57
 386  0.504  0.625  0.594- 256 2.56 280 2.60 233 2.65 245 2.65 219 2.69 247 2.73 189 2.76 272 2.81
                           264 2.86 287 2.92 427 3.37 388 3.43 389 3.45 398 3.46 414 3.46 291 3.46
 387  0.916  0.000  0.604- 258 1.80 308 1.80 202 2.00 286 2.02 182 2.20 239 2.21 315 3.42 364 3.42
                           383 3.44 366 3.46 332 3.51 338 3.53
 388  0.585  0.752  0.599- 257 1.90 280 1.90 208 1.92 220 2.03 287 2.05 245 2.14 380 3.37 386 3.43
                           384 3.45 379 3.46 325 3.48 331 3.49
 389  0.591  0.501  0.594- 209 1.81 219 1.89 244 1.95 264 1.97 279 2.11 247 2.25  11 3.13 323 3.34
                           380 3.36 386 3.45 370 3.45 333 3.51 375 3.59
 390  0.242  0.498  0.594- 214 1.83 309 1.89 213 1.93 265 2.00 224 2.04 204 2.16 328 3.33 369 3.40
                           378 3.40 318 3.50 373 3.51 368 3.57
 391  0.250  0.753  0.592- 223 1.82 212 1.88 266 1.96 215 1.96 205 2.03 330 3.34 321 3.36 374 3.43
                           372 3.47 368 3.49 373 3.54
 392  0.584  0.247  0.597- 206 1.89 311 1.91 263 1.96 216 1.98 248 2.04 221 2.11 371 3.37 375 3.39
                           324 3.43 376 3.44 370 3.46 334 3.46
 393  0.583  0.000  0.604- 262 1.79 282 1.80 207 2.00 249 2.01 222 2.22 241 2.23 376 3.34 379 3.35
                           384 3.39 371 3.40 322 3.55 329 3.55
 394  0.250  0.997  0.604- 268 1.79 312 1.81 210 1.98 201 2.03 246 2.22 226 2.24 372 3.33 367 3.36
                           377 3.43 374 3.44 326 3.54 320 3.56
 395  0.249  0.246  0.604- 252 1.74 211 1.94 267 1.94 200 2.06 184 2.12 225 2.30 369 3.40 377 3.41
                           367 3.43 378 3.47 327 3.52 319 3.58
 396  0.417  0.000  0.605- 255 1.79 288 1.80 249 2.00 201 2.00 234 2.25 191 2.25 372 3.34 376 3.35
                           367 3.36 384 3.40 329 3.56 320 3.57
 397  0.415  0.249  0.591- 193 1.85 200 1.90 232 1.96 248 1.99 302 2.00 289 2.31 319 3.32 334 3.37
                           375 3.43 369 3.49 376 3.51 367 3.55
 398  0.418  0.750  0.595- 287 1.94 290 1.95 229 1.97 205 1.97 189 2.01 256 2.04 331 3.37 321 3.42
                           368 3.43 386 3.46 384 3.47 372 3.48
 399  0.756  0.502  0.595- 285 1.83 292 1.90 254 1.98 228 1.99 187 2.04 209 2.12 349 3.36 365 3.43
                           363 3.48 323 3.51 380 3.52 370 3.53
 400  0.753  0.753  0.591- 227 1.85 283 1.86 293 1.96 186 1.98 208 2.07 250 2.26  28 3.13 362 3.31
                           325 3.36 380 3.44 364 3.44 365 3.48 379 3.53
 401  0.754  0.248  0.594- 284 1.84 190 1.95 231 1.99 253 1.99 294 2.00 206 2.14   3 3.05 335 3.34
                           370 3.39 383 3.42 363 3.42 324 3.42 371 3.50
 402  0.750  0.002  0.604- 295 1.80 251 1.80 286 1.99 207 2.02 230 2.21 185 2.26 379 3.37 371 3.39
                           383 3.43 364 3.43 332 3.55 322 3.55
 403  0.084  0.248  0.604- 301 1.79 296 1.80 203 1.99 211 2.03 196 2.19 237 2.25 378 3.34 315 3.45
                           377 3.48 381 3.50 327 3.52 337 3.53
 404  0.081  0.501  0.603- 300 1.80 298 1.80 198 1.95 214 2.05 236 2.21 195 2.23 373 3.37 381 3.45
                           317 3.47 378 3.48 382 3.52 328 3.60
 405  0.081  0.751  0.603- 313 1.79 305 1.80 199 1.95 212 2.15 235 2.18 194 2.22 373 3.32 366 3.42
                           374 3.42 336 3.47 330 3.59 382 3.65
 406  0.083  0.998  0.603- 304 1.80 299 1.80 202 2.00 210 2.02 192 2.18 238 2.22 315 3.43 374 3.45
                           366 3.45 377 3.45 326 3.51 338 3.52
 407  0.918  0.751  0.603- 261 1.79 307 1.80 199 1.96 283 2.09 217 2.19 240 2.22 365 3.34 366 3.40
                           336 3.48 364 3.49 362 3.59 382 3.65
 408  0.412  0.497  0.593- 204 1.85 188 1.88 233 1.89 303 2.07 247 2.10 291 2.15 318 3.35 368 3.37
                           369 3.43 333 3.50 375 3.53 386 3.59
 409  0.920  0.249  0.603- 281 1.79 260 1.80 203 1.95 284 2.12 242 2.17 153 2.21 363 3.39 315 3.43
                           381 3.45 383 3.47 337 3.48 335 3.59
 410  0.918  0.626  0.506- 240 1.84 218 1.84  75 1.95 273 2.04  83 2.10  64 2.12 317 3.39 336 3.40
                           349 3.41 362 3.43 365 3.50 340 3.55 316 3.59
 411  0.917  0.875  0.507- 217 1.84 239 1.84  77 1.97 274 2.01  70 2.11  63 2.12 362 3.37 336 3.40
                           338 3.40 332 3.42 341 3.58 339 3.59 364 3.87 366 3.96
 412  0.083  0.875  0.507- 235 1.84 192 1.84  77 1.97 183 2.02 143 2.11  60 2.11 330 3.37 336 3.40
                           338 3.41 326 3.44 341 3.58 353 3.59 374 3.88 366 3.98
 413  0.081  0.626  0.506- 236 1.84 194 1.85  75 1.93 278 2.06  59 2.09 142 2.11 336 3.38 317 3.39
                           373 3.42 328 3.43 330 3.43 340 3.53 352 3.59
 414  0.417  0.626  0.501-  57 1.91  80 1.93 189 1.94 146 1.97 272 1.98 233 2.13 321 3.41 368 3.43
                           356 3.44 344 3.44 333 3.45 331 3.46 386 3.46 318 3.48
 415  0.416  0.374  0.501- 145 1.92  81 1.94  58 1.96 270 1.97 232 1.98 188 2.06 343 3.43 318 3.44
                           355 3.44 333 3.45 334 3.46 319 3.48 375 3.48 369 3.49
 416  0.416  0.122  0.503- 234 1.84  76 1.95 144 1.96 197 1.98 193 2.03  68 2.07 320 3.33 329 3.39
                           334 3.46 319 3.47 342 3.47 354 3.50 376 3.68 367 3.87
 417  0.751  0.879  0.503- 185 1.82 274 1.95  52 1.96 297 2.00 227 2.02 151 2.10 332 3.36 322 3.37
                           325 3.46 362 3.48 339 3.49 350 3.51 379 3.77 364 3.92
 418  0.249  0.124  0.507- 226 1.84 184 1.87 181 1.96  76 2.01 152 2.11  51 2.13 319 3.36 326 3.38
                           327 3.39 320 3.40 360 3.57 342 3.60 367 3.75 377 3.95
 419  0.248  0.624  0.503- 278 1.90 224 1.92 215 1.97 155 1.99  69 1.99  80 2.08 318 3.42 328 3.42
                           368 3.45 330 3.45 352 3.46 321 3.48 344 3.52 373 3.63
 420  0.247  0.373  0.503- 225 1.85 277 1.90 154 1.97 213 1.98  65 2.06  81 2.08 369 3.29 327 3.37
                           319 3.42 351 3.44 328 3.45 318 3.46 343 3.53 378 3.72
 421  0.082  0.375  0.506- 237 1.84 195 1.84  74 1.95 277 2.02 141 2.10  61 2.11 337 3.39 328 3.40
                           317 3.42 327 3.46 361 3.55 351 3.59 378 3.61 381 3.99
 422  0.753  0.375  0.503- 275 1.90 187 1.93 231 1.98  54 1.99 149 1.99  82 2.06 370 3.36 349 3.41
                           323 3.41 359 3.45 335 3.45 324 3.49 347 3.51 363 3.65
 423  0.751  0.122  0.505- 230 1.83 190 1.94 276 1.95  79 2.01 148 2.02  55 2.11 332 3.36 322 3.39
                           324 3.43 335 3.45 358 3.53 346 3.55 371 3.78 383 3.97
 424  0.417  0.877  0.504- 191 1.85 229 1.96  78 1.97 271 1.97  56 2.00 147 2.09 329 3.38 320 3.41
                           331 3.41 321 3.42 345 3.51 357 3.52 372 3.54 384 3.75
 425  0.249  0.879  0.503- 246 1.83 183 1.93  89 1.94  78 2.00 156 2.07 223 2.08 326 3.37 320 3.38
                           353 3.47 330 3.48 321 3.48 345 3.49 372 3.63 374 3.99
 426  0.583  0.123  0.505- 222 1.85 216 1.94  79 1.96 197 1.99  92 2.02  71 2.09 322 3.38 329 3.40
                           334 3.40 324 3.41 346 3.53 354 3.53 376 3.62 371 3.75
 427  0.584  0.627  0.501-  87 1.91 245 1.92  90 1.92 272 1.99  91 2.00 219 2.09 386 3.37 325 3.40
                           380 3.42 331 3.42 348 3.43 356 3.45 333 3.46 323 3.48
 428  0.584  0.373  0.502- 221 1.90  82 1.94 158 1.96 270 2.00  88 2.01 244 2.04 375 3.39 334 3.42
                           333 3.43 324 3.43 370 3.45 323 3.46 347 3.47 355 3.48
 429  0.918  0.374  0.506- 153 1.85 243 1.85  74 1.94 275 2.04  67 2.09  84 2.10 337 3.39 317 3.41
                           349 3.42 335 3.43 363 3.52 361 3.54 359 3.59 381 3.99
 430  0.918  0.125  0.506- 182 1.84 242 1.85  72 1.97 276 2.01  66 2.11  85 2.11 335 3.37 338 3.40
                           332 3.41 337 3.41 385 3.57 358 3.59 315 3.91 383 3.94
 431  0.584  0.876  0.506- 241 1.84 220 1.92 297 1.96 271 2.00  86 2.05  73 2.11 331 3.38 322 3.38
                           325 3.39 329 3.39 350 3.55 357 3.56 379 3.70 384 3.70
 432  0.752  0.625  0.503- 273 1.90 186 1.94 228 1.95  53 1.98 150 2.00  90 2.06 380 3.41 323 3.41
[...]
  345        fft3d_mpi                            24.372054                         2741   3
  346          fftbrc_mpi                           23.682814                       2741   4
  347            fftbas_plan_mpi                      23.672626                     2741   5
  348              dfftw_execute                         3.495831                   8223   6
  349              map_forward                           8.901550                   2754   6
  350                map_gather                            0.188279                 1390   7
  351                m_alltoallv_z                         7.844758                 1390   7
  352                map_scatter                           0.841935                 1390   7
  353              map_backward                          9.299316                   2728   6
  354                map_gather                            0.682283                 1364   7
  355                m_alltoallv_z                         8.210576                 1364   7
  356                map_scatter                           0.379014                 1364   7
  357        ggaall_grid                          19.160144                          237   3
  358        m_sumb_d                              0.305497                         1224   3
  359        fewald                                0.018443                           26   3
  360          rsp                                   0.016930                         26   4
  361          rcp                                   0.001314                         26   4
  362        pothar                                0.183330                           13   3
  363          m_sumb_d                              0.176783                         13   4
  364        m_bcast_d                             0.043274                           13   3
  365      potlok_metagga                        0.000021                             13   2
  366      set_dd_magatom                        0.000007                              7   2
  367      set_dd_paw                            0.169586                             13   2
  368        set_rsgf_all                          0.000044                           13   3
  369        m_sumb_d                              0.165812                           91   3
  370      wavpre_noio                           1.650318                              6   2
  371        stufak                                1.568852                            6   3
  372      eddiag                              133.497337                              6   2
  373        overl                                 0.007983                            6   3
  374        redis_proj                            0.883234                           18   3
  375          m_alltoall_d                          0.876158                       2520   4
  376        fftwav_mpi                            3.322779                          840   3
  377          fft3d_mpi                             2.975760                        840   4
  378            fftbrc_mpi                            2.527178                      840   5
  379              fftbas_plan_mpi                       2.524685                    840   6
  380                dfftw_execute                         1.279118                 2520   7
  381                map_forward                           0.743435                 1680   7
  382                  map_gather                            0.077519                840   8
  383                  m_alltoallv_z                         0.276145                840   8
  384                  map_scatter                           0.153878                840   8
  385        hamilt_local                          2.979749                          840   3
  386          vhamil                                0.402255                        840   4
  387          kinhamil                              2.570304                        840   4
  388            fftext_mpi                            2.541148                      840   5
  389              fft3d_mpi                             2.483021                    840   6
  390                fftbrc_mpi                            2.090064                  840   7
  391                  fftbas_plan_mpi                       2.087305                840   8
  392                    dfftw_execute                         1.092677             2520   9
  393                    map_backward                          0.503814             1680   9
  394                      map_gather                            0.131628            840  10
  395                      m_alltoallv_z                         0.242931            840  10
  396                      map_scatter                           0.115550            840  10
  397        redis_pw                              1.625822                          846   3
  398          m_alltoall_d                          1.568258                       2520   4
  399        orth1                                 1.719825                          420   3
  400        m_sumb_d                              1.300816                            6   3
  401        shift_bands_between_low_high          0.000010                            6   3
  402        lincom                                1.829938                            6   3
  403      set_charge                            3.442041                              6   2
  404        soft_charge                           3.169251                            6   3
  405          fftwav_mpi                            2.736554                        702   4
  406            fft3d_mpi                             2.465054                      702   5
  407              fftbrc_mpi                            2.103773                    702   6
  408                fftbas_plan_mpi                       2.101582                  702   7
  409                  dfftw_execute                         1.061173               2106   8
  410                  map_forward                           0.596241               1404   8
  411                    map_gather                            0.061340              702   9
  412                    m_alltoallv_z                         0.215328              702   9
  413                    map_scatter                           0.128795              702   9
  414          pw_charge                             0.313224                        702   4
  415          m_sumb_d                              0.074703                          6   4
  416          fft_gq                                0.030632                          6   4
  417            fft3d_mpi                             0.029601                        6   5
  418              fftbrc_mpi                            0.027695                      6   6
  419                fftbas_plan_mpi                       0.027677                    6   7
  420                  dfftw_execute                         0.005260                 18   8
  421                  map_backward                          0.018978                 12   8
  422                    map_gather                            0.002275               12   9
  423                    m_alltoallv_z                         0.015700               12   9
  424                    map_scatter                           0.000844               12   9
  425        depsum                                0.012917                            6   3
  426          m_sumb_d                              0.006198                          6   4
  427        augmentation_charge                   0.258485                            6   3
  428          m_sumb_d                              0.015231                          6   4
  429          fft3d_mpi                             0.052018                          6   4
  430            fftbrc_mpi                            0.050633                        6   5
  431              fftbas_plan_mpi                       0.050615                      6   6
  432                dfftw_execute                         0.006822                   18   7
  433                map_backward                          0.039412                   12   7
  434                  map_gather                            0.002784                  6   8
  435                  m_alltoallv_z                         0.034845                  6   8
  436                  map_scatter                           0.001667                  6   8
 
 Flat profile
 ============
 
             routine name                   CPU           calls
 ---------------------------------------------------------------
 edwav                                7585.908855         691
 potlok                               1259.604953         705
 m_alltoall_d                          679.268414     1675653
 dfftw_execute                         568.505612     1204512
 lincom                                541.116952        2098
 m_sumb_d                              523.616553      711221
 total_time                            487.243472           1
 m_alltoallv_z                         414.348231      402907
 orth1                                 347.356719      105607
 fftbas_plan_mpi                       248.212589      401504
 choleski                              241.578748         698
 eddiag                                230.170152         360
 fft3d_mpi                             184.678449      401504
 ggaall_grid                           157.345791         936
 fftwav_mpi                             98.260831      245646
 eddav                                  93.452936           5
 eccp                                   92.126148      193760
 map_scatter                            83.079471      402907
 racc0                                  76.774830       50719
 rpro1                                  71.377448       50019
 map_forward                            66.684143      545762
 map_gather                             54.476594      402907
 pw_charge                              35.695833       81768
 vhamil                                 26.386945       52539
 setdij_                                25.917063         888
 augmentation_charge                    22.239833         698
 w1_dscal                               15.314132       48160
 force_and_stress                       12.655197           7
 m_bcast_z                              11.541191        2380
 redis_pw                               10.892394      203200
 rpromu                                  8.954393        3185
 ggemm                                   7.791290        3259
 fftext_mpi                              7.269989      100699
 orthch                                  5.205343         698
 redis_proj                              5.013037      160975
 rpromu_gemm                             4.975046      726180
 lapack                                  3.850661        2559
 m_bcast_d                               3.757917        8411
 rspher_all                              3.247759          92
 overl                                   3.100205       53977
 forhar                                  2.822906           7
 forloc                                  2.820677           7
 map_backward                            2.135812      257246
 elmin_all                               1.846744           7
 stufak                                  1.832775           7
 kinhamil                                1.761968       52539
 soft_charge                             1.612208         698
 fftbrc_mpi                              1.360122      401504
 densta                                  1.314618         709
 rsp                                     0.990916        1417
 depsum                                  0.786787         698
 hamilt_local                            0.403537       49980
 pothar                                  0.352577         705
 set_dd_paw                              0.341742         712
 w1_copy                                 0.293352        7677
 set_charge                              0.173102         698
 strnlr                                  0.147407           7
 rpro_isp                                0.140692          91
 fft_gq                                  0.118098         698
 overl1                                  0.095253        2559
 apply_precond                           0.094328        1859
 wavpre_noio                             0.081466           6
 rcp                                     0.075620        1417
 fewald                                  0.065454        1417
 setup_precond                           0.063342         700
 strehar                                 0.039670           7
 fornlr                                  0.039665           7
 hamiltmu                                0.037958        2559
 strkin                                  0.037004           7
 strelo                                  0.036855           7
 raccmu_                                 0.031092        2559
 newband                                 0.029183        2564
 w1_projall                              0.011541        1859
 redis_pw_all                            0.004381         691
 truncate_high_frequency_w1              0.003466        3259
 redis_pw_over_bands                     0.002769         704
 set_rsgf_all                            0.001771         712
 fordep                                  0.001610           7
 brgrid                                  0.001318           1
 potlok_metagga                          0.001199         705
 phaser                                  0.000327         440
 crpa_reader                             0.000256           1
 proall                                  0.000094           7
 rotate_active_occupied_orbital          0.000079           7
 vectorpot                               0.000036           1
 set_dd_magatom                          0.000033          14
 shift_bands_between_low_high            0.000019          13
 ---------------------------------------------------------------
  summed up times    14341.0079481602     
 
 Accumulative profile
 ====================
 
             routine name                   CPU           calls
 ---------------------------------------------------------------
 total_time                          14341.007948           1
 elmin_all                           13469.311438           7
 edwav                               10702.106878         691
 potlok                               1873.965688         705
 fft3d_mpi                            1623.481023      401504
 fftbrc_mpi                           1438.802574      401504
 fftbas_plan_mpi                      1437.442452      401504
 fftwav_mpi                            960.695240      245646
 orthch                                786.010221         698
 m_alltoall_d                          679.268414     1675653
 dfftw_execute                         568.505612     1204512
 lincom                                541.116952        2098
 m_sumb_d                              523.616553      711221
 eddiag                                475.414849         360
 m_alltoallv_z                         414.348231      402907
 set_charge                            402.204794         698
 map_forward                           391.423298      545762
 soft_charge                           369.798954         698
 redis_proj                            362.000873      160975
 orth1                                 347.356719      105607
 redis_pw                              333.172972      203200
 fftext_mpi                            303.376048      100699
 choleski                              241.578748         698
 map_backward                          229.300952      257246
 hamilt_local                          177.709732       49980
 eddav                                 175.877016           5
 kinhamil                              160.128429       52539
 ggaall_grid                           157.345791         936
 eccp                                  103.617285      193760
 racc0                                  99.724438       50719
 force_and_stress                       95.552520           7
 map_scatter                            83.079471      402907
 rpro1                                  81.190837       50019
 rpro_isp                               65.653702          91
 redis_pw_over_bands                    55.111996         704
 redis_pw_all                           55.109228         691
 map_gather                             54.476594      402907
 strnlr                                 48.349881           7
 pw_charge                              35.695833       81768
 setdij_                                35.035918         888
 augmentation_charge                    30.889318         698
 vhamil                                 26.386945       52539
 fornlr                                 16.076636           7
 rpromu                                 15.643310        3185
 w1_dscal                               15.314132       48160
 hamiltmu                               13.870386        2559
 m_bcast_z                              11.541191        2380
 set_dd_paw                              9.114349         712
 ggemm                                   7.791290        3259
 densta                                  7.552013         709
 proall                                  5.121452           7
 rpromu_gemm                             4.975046      726180
 raccmu_                                 4.623250        2559
 newband                                 4.226442        2564
 lapack                                  3.850661        2559
 m_bcast_d                               3.757917        8411
 fft_gq                                  3.590808         698
 rspher_all                              3.247759          92
 overl                                   3.100205       53977
 w1_projall                              3.025340        1859
 forloc                                  2.867881           7
 forhar                                  2.865544           7
 stufak                                  1.832775           7
 fordep                                  1.660640           7
 wavpre_noio                             1.650318           6
 pothar                                  1.536469         705
 fewald                                  1.344196        1417
 depsum                                  1.343420         698
 rsp                                     0.990916        1417
 w1_copy                                 0.293352        7677
 overl1                                  0.095253        2559
 apply_precond                           0.094328        1859
 setup_precond                           0.091626         700
 rcp                                     0.075620        1417
 strelo                                  0.065171           7
 strehar                                 0.042945           7
 strkin                                  0.039834           7
 truncate_high_frequency_w1              0.003466        3259
 set_rsgf_all                            0.001771         712
 brgrid                                  0.001318           1
 potlok_metagga                          0.001199         705
 phaser                                  0.000327         440
 crpa_reader                             0.000256           1
 rotate_active_occupied_orbital          0.000079           7
 vectorpot                               0.000036           1
 set_dd_magatom                          0.000033          14
 shift_bands_between_low_high            0.000019          13
 ---------------------------------------------------------------
 
Profiling took  10.318387  3.404450  0.007687  0.006755 seconds
Profiling took  11.774973 seconds
