 vasp.6.3.2 27Jun22 (build Jan 03 2024 23:25:20) gamma-only                     
  
 executed on           IFC15_impi date 2024.06.05  04:53:28
 running  512 mpi-ranks, with    1 threads/rank
 distrk:  each k-point on  512 cores,    1 groups
 distr:  one band on NCORE=  32 cores,   16 groups


--------------------------------------------------------------------------------------------------------


 INCAR:
   ENCUT = 500.000000
   SIGMA = 0.010000
   EDIFF = 1.00e-05
   ALGO = A
   ISMEAR = 0
   NELM = 200
   NSW = 999
   NCORE = 32
   LCHARG = .TRUE.
   LWAVE = .TRUE.
   LREAL = Auto
   IBRION = 5
   POTIM = 0.015
   NFREE = 2
   ISYM = 0
   EDIFFG = -0.05
   GGA = BF
   LUSE_VDW = .TRUE.
   ZAB_VDW = -1.8867
   LBEEFENS = .TRUE.
   DIPOL = 0.5 0.5 0.65
   IDIPOL = 3
   LDIPOL = .TRUE.

 POTCAR:    PAW_PBE Au 04Oct2007                  
 POTCAR:    PAW_PBE O 08Apr2002                   
 POTCAR:    PAW_PBE Sr_sv 07Sep2000               
 POTCAR:    PAW_PBE Ti_sv 26Sep2005               
 POTCAR:    PAW_PBE H 15Jun2001                   
 -----------------------------------------------------------------------------
|                                                                             |
|               ----> ADVICE to this user running VASP <----                  |
|                                                                             |
|     You have switched on vdW-DFT.                                           |
|     This routine was written and supplied by Jiri Klimes. We recommend      |
|     that you carefully read and cite the following publications:            |
|       J. Klimes, D.R. Bowler, A. Michelides                                 |
|          J. Phys.: Cond Matt. 22 022201 (2010)                              |
|       J. Klimes, D.R. Bowler, A. Michelides                                 |
|          Phys. Rev. B. 83, 195131 (2011)                                    |
|     and references therein.                                                 |
|                                                                             |
 -----------------------------------------------------------------------------

 POTCAR:    PAW_PBE Au 04Oct2007                  
   SHA256 =  d0044ae04e2bdce24051b198fc5c053d722a5bc6fe3c3b100514a13fc5d2db88 Au/POTCAR             
   COPYR  = (c) Copyright 04Oct2007 Georg Kresse                                                    
   COPYR  = This file is part of the software VASP. Any use, copying, and all other rights are regul
   COPYR  = If you do not have a valid VASP license, you may not use, copy or distribute this file. 
   VRHFIN =Au: s1d10                                                                                
   LEXCH  = PE                                                                                      
   EATOM  =   926.0867 eV,   68.0654 Ry                                                             
                                                                                                    
   TITEL  = PAW_PBE Au 04Oct2007                                                                    
   LULTRA =        F    use ultrasoft PP ?                                                          
   IUNSCR =        1    unscreen: 0-lin 1-nonlin 2-no                                               
   RPACOR =    2.330    partial core radius                                                         
   POMASS =  196.966; ZVAL   =   11.000    mass and valenz                                          
   RCORE  =    2.500    outmost cutoff radius                                                       
   RWIGS  =    2.840; RWIGS  =    1.503    wigner-seitz radius (au A)                               
   ENMAX  =  229.943; ENMIN  =  172.457 eV                                                          
   ICORE  =        3    local potential                                                             
   LCOR   =        T    correct aug charges                                                         
   LPAW   =        T    paw PP                                                                      
   EAUG   =  356.670                                                                                
   DEXC   =    0.000                                                                                
   RMAX   =    2.562    core radius for proj-oper                                                   
   RAUG   =    1.300    factor for augmentation sphere                                              
   RDEP   =    2.598    radius for radial grids                                                     
   RDEPT  =    2.193    core radius for aug-charge                                                  
                                                                                                    
   Atomic configuration                                                                             
   16 entries                                                                                       
     n  l   j            E        occ.                                                              
     1  0  0.50    -80748.5001   2.0000                                                             
     2  0  0.50    -14244.7466   2.0000                                                             
     2  1  1.50    -12310.9591   6.0000                                                             
     3  0  0.50     -3362.1768   2.0000                                                             
     3  1  1.50     -2801.5463   6.0000                                                             
     3  2  2.50     -2203.8206  10.0000                                                             
     4  0  0.50      -729.8168   2.0000                                                             
     4  1  1.50      -546.0527   6.0000                                                             
     4  2  2.50      -325.7302  10.0000                                                             
     4  3  3.50       -81.1472  14.0000                                                             
     5  0  0.50      -108.3201   2.0000                                                             
     5  1  1.50       -59.7479   6.0000                                                             
     5  2  2.50        -6.8783  10.0000                                                             
     6  0  0.50        -5.7602   1.0000                                                             
     6  1  1.50        -6.8029   0.0000                                                             
     5  3  2.50        -1.3606   0.0000                                                             
   Description                                                                                      
     l       E           TYP  RCUT    TYP  RCUT                                                     
     2     -6.8782861     23  2.500                                                                 
     2     -8.2388687     23  2.500                                                                 
     0     -5.7601759     23  2.500                                                                 
     0     -0.8493231     23  2.500                                                                 
     1     -2.7211652     23  2.500                                                                 
     1     27.2116520     23  2.500                                                                 
     3     -1.3605826     23  2.500                                                                 
  local pseudopotential read in
  partial core-charges read in
  partial kinetic energy density read in
  atomic valenz-charges read in
  non local Contribution for L=           2  read in
    real space projection operators read in
  non local Contribution for L=           2  read in
    real space projection operators read in
  non local Contribution for L=           0  read in
    real space projection operators read in
  non local Contribution for L=           0  read in
    real space projection operators read in
  non local Contribution for L=           1  read in
    real space projection operators read in
  non local Contribution for L=           1  read in
    real space projection operators read in
    PAW grid and wavefunctions read in
 
   number of l-projection  operators is LMAX  =           6
   number of lm-projection operators is LMMAX =          18
 
 POTCAR:    PAW_PBE O 08Apr2002                   
   SHA256 =  818f92134a0a090dccd8ba1447fa70422a3b330e708bb4f08108d8ae51209ddf O/POTCAR              
   COPYR  = (c) Copyright 08Apr2002 Georg Kresse                                                    
   COPYR  = This file is part of the software VASP. Any use, copying, and all other rights are regul
   COPYR  = If you do not have a valid VASP license, you may not use, copy or distribute this file. 
   VRHFIN =O: s2p4                                                                                  
   LEXCH  = PE                                                                                      
   EATOM  =   432.3788 eV,   31.7789 Ry                                                             
                                                                                                    
   TITEL  = PAW_PBE O 08Apr2002                                                                     
   LULTRA =        F    use ultrasoft PP ?                                                          
   IUNSCR =        1    unscreen: 0-lin 1-nonlin 2-no                                               
   RPACOR =    1.200    partial core radius                                                         
   POMASS =   16.000; ZVAL   =    6.000    mass and valenz                                          
   RCORE  =    1.520    outmost cutoff radius                                                       
   RWIGS  =    1.550; RWIGS  =    0.820    wigner-seitz radius (au A)                               
   ENMAX  =  400.000; ENMIN  =  300.000 eV                                                          
   ICORE  =        2    local potential                                                             
   LCOR   =        T    correct aug charges                                                         
   LPAW   =        T    paw PP                                                                      
   EAUG   =  605.392                                                                                
   DEXC   =    0.000                                                                                
   RMAX   =    1.553    core radius for proj-oper                                                   
   RAUG   =    1.300    factor for augmentation sphere                                              
   RDEP   =    1.550    radius for radial grids                                                     
   RDEPT  =    1.329    core radius for aug-charge                                                  
                                                                                                    
   Atomic configuration                                                                             
    4 entries                                                                                       
     n  l   j            E        occ.                                                              
     1  0  0.50      -514.6923   2.0000                                                             
     2  0  0.50       -23.9615   2.0000                                                             
     2  1  0.50        -9.0305   4.0000                                                             
     3  2  1.50        -9.5241   0.0000                                                             
   Description                                                                                      
     l       E           TYP  RCUT    TYP  RCUT                                                     
     0    -23.9615318     23  1.200                                                                 
     0     -9.5240782     23  1.200                                                                 
     1     -9.0304911     23  1.520                                                                 
     1      8.1634956     23  1.520                                                                 
     2     -9.5240782      7  1.500                                                                 
  local pseudopotential read in
  partial core-charges read in
  partial kinetic energy density read in
  kinetic energy density of atom read in
  atomic valenz-charges read in
  non local Contribution for L=           0  read in
    real space projection operators read in
  non local Contribution for L=           0  read in
    real space projection operators read in
  non local Contribution for L=           1  read in
    real space projection operators read in
  non local Contribution for L=           1  read in
    real space projection operators read in
    PAW grid and wavefunctions read in
 
   number of l-projection  operators is LMAX  =           4
   number of lm-projection operators is LMMAX =           8
 
 POTCAR:    PAW_PBE Sr_sv 07Sep2000               
   SHA256 =  a8389d3481648516ee67182ee030b298d280b37e29cbbf2d8595f040d757c710 Sr_sv/POTCAR          
   COPYR  = (c) Copyright 07Sep2000 Georg Kresse                                                    
   COPYR  = This file is part of the software VASP. Any use, copying, and all other rights are regul
   COPYR  = If you do not have a valid VASP license, you may not use, copy or distribute this file. 
   VRHFIN =Sr: 4s4p5s                                                                               
   LEXCH  = PE                                                                                      
   EATOM  =   843.0319 eV,   61.9611 Ry                                                             
                                                                                                    
   TITEL  = PAW_PBE Sr_sv 07Sep2000                                                                 
   LULTRA =        F    use ultrasoft PP ?                                                          
   IUNSCR =        1    unscreen: 0-lin 1-nonlin 2-no                                               
   RPACOR =    2.200    partial core radius                                                         
   POMASS =   87.620; ZVAL   =   10.000    mass and valenz                                          
   RCORE  =    2.500    outmost cutoff radius                                                       
   RWIGS  =    4.040; RWIGS  =    2.138    wigner-seitz radius (au A)                               
   ENMAX  =  229.353; ENMIN  =  172.014 eV                                                          
   RCLOC  =    2.201    cutoff for local pot                                                        
   LCOR   =        T    correct aug charges                                                         
   LPAW   =        T    paw PP                                                                      
   EAUG   =  366.804                                                                                
   DEXC   =    0.000                                                                                
   RMAX   =    2.547    core radius for proj-oper                                                   
   RAUG   =    1.300    factor for augmentation sphere                                              
   RDEP   =    2.562    radius for radial grids                                                     
   RDEPT  =    2.128    core radius for aug-charge                                                  
                                                                                                    
   Atomic configuration                                                                             
   10 entries                                                                                       
     n  l   j            E        occ.                                                              
     1  0  0.50    -15934.8930   2.0000                                                             
     2  0  0.50     -2157.6250   2.0000                                                             
     2  1  1.50     -1917.0034   6.0000                                                             
     3  0  0.50      -333.7288   2.0000                                                             
     3  1  1.50      -256.0992   6.0000                                                             
     3  2  2.50      -127.9971  10.0000                                                             
     4  0  0.50       -40.8953   2.0000                                                             
     5  0  0.50        -3.5257   1.9990                                                             
     4  1  1.50       -22.8179   6.0000                                                             
     4  2  1.50        -1.2815   0.0010                                                             
   Description                                                                                      
     l       E           TYP  RCUT    TYP  RCUT                                                     
     0    -40.8953213     23  2.480                                                                 
     0     -3.5257161     23  2.480                                                                 
     1    -22.8178632     23  2.500                                                                 
     1    -24.1784458     23  2.500                                                                 
     2     -1.2814598     23  2.500                                                                 
     2      0.2279365     23  2.500                                                                 
  local pseudopotential read in
  partial core-charges read in
  partial kinetic energy density read in
  atomic valenz-charges read in
  non local Contribution for L=           0  read in
    real space projection operators read in
  non local Contribution for L=           0  read in
    real space projection operators read in
  non local Contribution for L=           1  read in
    real space projection operators read in
  non local Contribution for L=           1  read in
    real space projection operators read in
  non local Contribution for L=           2  read in
    real space projection operators read in
  non local Contribution for L=           2  read in
    real space projection operators read in
    PAW grid and wavefunctions read in
 
   number of l-projection  operators is LMAX  =           6
   number of lm-projection operators is LMMAX =          18
 
 POTCAR:    PAW_PBE Ti_sv 26Sep2005               
   SHA256 =  4d747badb5a5ea28d858fbac70885b3f8929d6fd9e5b0dbe1ecb9878dc164da1 Ti_sv/POTCAR          
   COPYR  = (c) Copyright 26Sep2005 Georg Kresse                                                    
   COPYR  = This file is part of the software VASP. Any use, copying, and all other rights are regul
   COPYR  = If you do not have a valid VASP license, you may not use, copy or distribute this file. 
   VRHFIN =Ti: 3p4s3d                                                                               
   LEXCH  = PE                                                                                      
   EATOM  =  1588.0892 eV,  116.7213 Ry                                                             
                                                                                                    
   TITEL  = PAW_PBE Ti_sv 26Sep2005                                                                 
   LULTRA =        F    use ultrasoft PP ?                                                          
   IUNSCR =        1    unscreen: 0-lin 1-nonlin 2-no                                               
   RPACOR =    2.000    partial core radius                                                         
   POMASS =   47.880; ZVAL   =   12.000    mass and valenz                                          
   RCORE  =    2.300    outmost cutoff radius                                                       
   RWIGS  =    2.300; RWIGS  =    1.217    wigner-seitz radius (au A)                               
   ENMAX  =  274.610; ENMIN  =  205.957 eV                                                          
   ICORE  =        3    local potential                                                             
   LCOR   =        T    correct aug charges                                                         
   LPAW   =        T    paw PP                                                                      
   EAUG   =  482.848                                                                                
   RMAX   =    2.348    core radius for proj-oper                                                   
   RAUG   =    1.300    factor for augmentation sphere                                              
   RDEP   =    2.381    radius for radial grids                                                     
   RDEPT  =    1.930    core radius for aug-charge                                                  
                                                                                                    
   Atomic configuration                                                                             
    8 entries                                                                                       
     n  l   j            E        occ.                                                              
     1  0  0.50     -4865.3608   2.0000                                                             
     2  0  0.50      -533.1368   2.0000                                                             
     2  1  1.50      -440.5031   6.0000                                                             
     3  0  0.50       -59.3186   2.0000                                                             
     4  0  0.50        -3.7291   1.0000                                                             
     3  1  1.50       -35.7012   6.0000                                                             
     3  2  2.50        -1.9157   3.0000                                                             
     4  3  2.50        -1.3606   0.0000                                                             
   Description                                                                                      
     l       E           TYP  RCUT    TYP  RCUT                                                     
     0    -59.3185931     23  1.800                                                                 
     0     -3.7290822     23  2.300                                                                 
     1    -35.7012045     23  2.300                                                                 
     1     -1.3605826     23  2.300                                                                 
     2     -1.9156920     23  2.300                                                                 
     2     -0.0236318     23  2.300                                                                 
     3     -1.3605826     23  2.300                                                                 
  local pseudopotential read in
  partial core-charges read in
  partial kinetic energy density read in
  atomic valenz-charges read in
  non local Contribution for L=           0  read in
    real space projection operators read in
  non local Contribution for L=           0  read in
    real space projection operators read in
  non local Contribution for L=           1  read in
    real space projection operators read in
  non local Contribution for L=           1  read in
    real space projection operators read in
  non local Contribution for L=           2  read in
    real space projection operators read in
  non local Contribution for L=           2  read in
    real space projection operators read in
    PAW grid and wavefunctions read in
 
   number of l-projection  operators is LMAX  =           6
   number of lm-projection operators is LMMAX =          18
 
 POTCAR:    PAW_PBE H 15Jun2001                   
   SHA256 =  030f79b5d3ab3cf0e668861823c8fb652ff669f3e15e46930bd03bfd63a607b6 H/POTCAR              
   COPYR  = (c) Copyright 15Jun2001 Georg Kresse                                                    
   COPYR  = This file is part of the software VASP. Any use, copying, and all other rights are regul
   COPYR  = If you do not have a valid VASP license, you may not use, copy or distribute this file. 
   VRHFIN =H: ultrasoft test                                                                        
   LEXCH  = PE                                                                                      
   EATOM  =    12.4884 eV,    0.9179 Ry                                                             
                                                                                                    
   TITEL  = PAW_PBE H 15Jun2001                                                                     
   LULTRA =        F    use ultrasoft PP ?                                                          
   IUNSCR =        0    unscreen: 0-lin 1-nonlin 2-no                                               
   RPACOR =    0.000    partial core radius                                                         
   POMASS =    1.000; ZVAL   =    1.000    mass and valenz                                          
   RCORE  =    1.100    outmost cutoff radius                                                       
   RWIGS  =    0.700; RWIGS  =    0.370    wigner-seitz radius (au A)                               
   ENMAX  =  250.000; ENMIN  =  200.000 eV                                                          
   RCLOC  =    0.701    cutoff for local pot                                                        
   LCOR   =        T    correct aug charges                                                         
   LPAW   =        T    paw PP                                                                      
   EAUG   =  400.000                                                                                
   RMAX   =    1.123    core radius for proj-oper                                                   
   RAUG   =    1.200    factor for augmentation sphere                                              
   RDEP   =    1.112    radius for radial grids                                                     
   RDEPT  =    0.926    core radius for aug-charge                                                  
                                                                                                    
   Atomic configuration                                                                             
    2 entries                                                                                       
     n  l   j            E        occ.                                                              
     1  0  0.50        -6.4927   1.0000                                                             
     2  1  0.50        -3.4015   0.0000                                                             
   Description                                                                                      
     l       E           TYP  RCUT    TYP  RCUT                                                     
     0     -6.4927494     23  1.100                                                                 
     0      6.8029130     23  1.100                                                                 
     1     -4.0817478     23  1.100                                                                 
  local pseudopotential read in
  atomic valenz-charges read in
  non local Contribution for L=           0  read in
    real space projection operators read in
  non local Contribution for L=           0  read in
    real space projection operators read in
  non local Contribution for L=           1  read in
    real space projection operators read in
    PAW grid and wavefunctions read in
 
   number of l-projection  operators is LMAX  =           3
   number of lm-projection operators is LMMAX =           5
 
 Optimization of the real space projectors (new method)

 maximal supplied QI-value         = 15.12
 optimisation between [QCUT,QGAM] = [ 11.34, 22.83] = [ 36.00,145.93] Ry 
 Optimized for a Real-space Cutoff    1.39 Angstroem

   l    n(q)    QCUT    max X(q) W(low)/X(q) W(high)/X(q)  e(spline) 
   2      9    11.338    60.898    0.39E-03    0.42E-03    0.21E-06
   2      9    11.338    58.894    0.40E-03    0.42E-03    0.22E-06
   0      9    11.338   109.617    0.13E-03    0.20E-04    0.13E-06
   0      9    11.338    75.026    0.13E-03    0.20E-04    0.13E-06
   1      9    11.338    16.344    0.33E-04    0.24E-03    0.18E-06
   1      9    11.338    10.160    0.26E-04    0.19E-03    0.15E-06
 Optimization of the real space projectors (new method)

 maximal supplied QI-value         = 24.76
 optimisation between [QCUT,QGAM] = [ 11.39, 22.77] = [ 36.31,145.25] Ry 
 Optimized for a Real-space Cutoff    1.00 Angstroem

   l    n(q)    QCUT    max X(q) W(low)/X(q) W(high)/X(q)  e(spline) 
   0      7    11.387    20.381    0.39E-03    0.13E-02    0.15E-06
   0      7    11.387    15.268    0.42E-03    0.14E-02    0.17E-06
   1      6    11.387     5.964    0.41E-03    0.11E-02    0.17E-06
   1      6    11.387     5.382    0.39E-03    0.87E-03    0.15E-06
 Optimization of the real space projectors (new method)

 maximal supplied QI-value         = 15.12
 optimisation between [QCUT,QGAM] = [ 11.34, 22.83] = [ 36.00,145.93] Ry 
 Optimized for a Real-space Cutoff    1.56 Angstroem

   l    n(q)    QCUT    max X(q) W(low)/X(q) W(high)/X(q)  e(spline) 
   0     11    11.338    11.565    0.26E-04    0.80E-05    0.70E-07
   0     11    11.338    10.214    0.41E-04    0.15E-04    0.15E-06
   1     10    11.338   189.983    0.18E-03    0.52E-04    0.42E-06
   1     10    11.338   193.105    0.19E-03    0.52E-04    0.42E-06
   2     10    11.338   115.941    0.22E-03    0.42E-03    0.43E-06
   2     10    11.338    76.444    0.21E-03    0.41E-03    0.42E-06
 Optimization of the real space projectors (new method)

 maximal supplied QI-value         = 16.25
 optimisation between [QCUT,QGAM] = [ 11.38, 22.75] = [ 36.24,144.96] Ry 
 Optimized for a Real-space Cutoff    1.27 Angstroem

   l    n(q)    QCUT    max X(q) W(low)/X(q) W(high)/X(q)  e(spline) 
   0      9    11.376    12.277    0.53E-04    0.25E-04    0.25E-07
   0      9    11.376    11.419    0.89E-04    0.67E-05    0.35E-07
   1      8    11.376     4.010    0.13E-03    0.11E-03    0.29E-07
   1      8    11.376     6.182    0.94E-04    0.19E-03    0.11E-06
   2      8    11.376    47.177    0.13E-03    0.88E-03    0.24E-06
   2      8    11.376    42.437    0.13E-03    0.86E-03    0.23E-06
 Optimization of the real space projectors (new method)

 maximal supplied QI-value         = 34.20
 optimisation between [QCUT,QGAM] = [ 11.29, 22.57] = [ 35.68,142.71] Ry 
 Optimized for a Real-space Cutoff    1.16 Angstroem

   l    n(q)    QCUT    max X(q) W(low)/X(q) W(high)/X(q)  e(spline) 
   0      8    11.287    19.460    0.40E-03    0.73E-03    0.16E-06
   0      8    11.287    12.209    0.38E-03    0.70E-03    0.15E-06
   1      7    11.287     4.655    0.22E-03    0.25E-04    0.22E-06
 -----------------------------------------------------------------------------
|                                                                             |
|               ----> ADVICE to this user running VASP <----                  |
|                                                                             |
|     You enforced a specific xc type in the INCAR file but a different       |
|     type was found in the POTCAR file.                                      |
|     I HOPE YOU KNOW WHAT YOU ARE DOING!                                     |
|                                                                             |
 -----------------------------------------------------------------------------

  PAW_PBE Au 04Oct2007                  :
 energy of atom  1       EATOM= -926.0867
 kinetic energy error for atom=    0.0042 (will be added to EATOM!!)
  PAW_PBE O 08Apr2002                   :
 energy of atom  2       EATOM= -432.3788
 kinetic energy error for atom=    0.0224 (will be added to EATOM!!)
  PAW_PBE Sr_sv 07Sep2000               :
 energy of atom  3       EATOM= -843.0319
 kinetic energy error for atom=    0.0012 (will be added to EATOM!!)
  PAW_PBE Ti_sv 26Sep2005               :
 energy of atom  4       EATOM=-1588.0892
 kinetic energy error for atom=    0.0046 (will be added to EATOM!!)
  PAW_PBE H 15Jun2001                   :
 energy of atom  5       EATOM=  -12.4884
 kinetic energy error for atom=    0.0020 (will be added to EATOM!!)
 
 
 POSCAR: Au O  Sr Ti H
  positions in cartesian coordinates
  No initial velocities read in
 exchange correlation table for  LEXCH =       17
   RHO(1)=    0.500       N(1)  =     2000
   RHO(2)=  100.500       N(2)  =     4000

 VTST: version 4.1, (05/19/21)

 CHAIN: initializing optimizer
 
 OPT: Using VASP Dynamics algorithm
 CHAIN: Read ICHAIN            0
 
 POSCAR: Au O  Sr Ti H
  positions in cartesian coordinates
  No initial velocities read in
 


--------------------------------------------------------------------------------------------------------


 ion  position               nearest neighbor table
   1  0.719  0.528  0.753-  15 2.69  16 2.72  14 2.79  44 2.84   2 2.85  29 2.91  46 3.06
   2  0.623  0.568  0.704- 264 2.09   1 2.85  15 2.85  46 2.85  48 2.86  16 2.90  12 2.93  36 3.06
                            11 3.33   5 3.42 380 3.72
   3  0.720  0.259  0.692- 294 2.06 253 2.07  32 2.65  43 2.80  27 2.82 401 3.06 371 4.05 370 4.07

   4  0.293  0.745  0.698- 310 2.07 266 2.07   9 2.79  23 2.82  50 3.03  42 3.25  45 3.55 368 4.21
                           372 4.23
   5  0.515  0.600  0.776-  26 2.68  48 2.75  13 2.87  39 2.93  47 2.93  12 2.94  16 2.98   6 3.16
                            31 3.37  49 3.41   2 3.42
   6  0.577  0.723  0.793-  18 2.73  36 2.73  17 2.79  47 2.81  13 3.00  48 3.15   5 3.16  16 3.43

   7  0.555  0.384  0.827-  10 2.79  29 2.85  33 2.86  12 2.94  31 2.94  34 3.01  20 3.11  41 3.38

   8  0.241  0.468  0.709- 309 2.10  19 2.70  24 2.81  45 2.81  40 2.97  35 3.14 378 4.15
   9  0.283  0.660  0.765-  45 2.69  30 2.75  50 2.76   4 2.79  24 2.80
  10  0.605  0.285  0.786-   7 2.79  43 2.81  41 2.81  32 2.82  27 2.83  25 2.89  34 3.28
  11  0.513  0.483  0.678- 279 2.11 247 2.15  26 2.69  12 2.75  49 2.88  34 2.97 389 3.15   2 3.33
                            46 3.41 375 3.54  37 3.55 386 4.05
  12  0.563  0.481  0.760-  11 2.75  34 2.83  49 2.83  29 2.84  31 2.90   2 2.93   5 2.94   7 2.94
                            46 3.01  16 3.09
  13  0.463  0.693  0.828-  50 2.81  30 2.83  47 2.87   5 2.87  39 2.88  18 2.89   6 3.00
  14  0.765  0.433  0.705- 254 2.01  44 2.71  46 2.75   1 2.79  43 2.89 363 3.72 370 4.26
  15  0.734  0.616  0.693- 292 2.08 250 2.11  36 2.67   1 2.69   2 2.85  28 3.23 380 3.39 365 3.71

  16  0.636  0.583  0.800-   1 2.72  36 2.79  47 2.79  31 2.80   2 2.90   5 2.98  12 3.09  29 3.14
                             6 3.43
  17  0.595  0.784  0.713- 257 2.08   6 2.79  28 2.79  18 2.94  48 2.95  36 3.11 379 4.19 384 4.35

  18  0.484  0.777  0.757-   6 2.73  23 2.83  50 2.85  42 2.88  13 2.89  17 2.94  48 3.33
  19  0.350  0.500  0.698- 291 2.11   8 2.70  37 2.88  24 2.91  49 2.92  40 2.92  26 2.99  45 3.00
                           368 4.16 369 4.28
  20  0.424  0.369  0.820- 459 1.71  33 2.76  21 2.82  40 2.97  38 2.97  49 2.99  41 2.99   7 3.11
                            34 3.43
  21  0.373  0.297  0.754-  35 2.75  37 2.75  20 2.82  40 2.85  41 2.90  22 2.96
  22  0.454  0.236  0.694- 302 2.05 289 2.13  25 2.72  41 2.77  21 2.96 397 3.23  37 3.52  34 3.54
                           376 3.81
  23  0.391  0.817  0.706- 290 2.06  42 2.78  50 2.82   4 2.82  18 2.83 372 3.64 384 4.12
  24  0.289  0.536  0.778-   9 2.80   8 2.81  38 2.82  40 2.89  30 2.89  45 2.90  19 2.91
  25  0.563  0.209  0.715- 311 2.15  22 2.72  32 2.88  27 2.88  10 2.89  41 2.93 376 4.06 371 4.35

  26  0.452  0.579  0.703- 291 2.11   5 2.68  11 2.69  42 2.74  48 2.89  49 2.92  19 2.99 386 3.65

  27  0.618  0.322  0.696- 263 2.04  43 2.75   3 2.82  10 2.83  34 2.84  46 2.85  25 2.88 370 3.52
                           375 4.25
  28  0.706  0.758  0.688- 293 2.04 250 2.06  36 2.64  17 2.79 400 3.13  15 3.23 379 3.80 380 4.18

  29  0.659  0.445  0.811-  44 2.84  12 2.84   7 2.85  31 2.86  43 2.91   1 2.91  16 3.14  46 3.56

  30  0.367  0.617  0.820-   9 2.75  39 2.77  13 2.83  38 2.87  24 2.89  50 2.98
  31  0.570  0.510  0.855-  33 2.74  16 2.80  29 2.86  47 2.89  12 2.90  39 2.91   7 2.94   5 3.37

  32  0.673  0.191  0.754-   3 2.65  10 2.82  25 2.88  43 3.55
  33  0.474  0.449  0.878-  31 2.74  20 2.76  39 2.80  38 2.85   7 2.86
  34  0.516  0.371  0.731-  12 2.83  41 2.84  27 2.84  49 2.87  11 2.97   7 3.01  37 3.07  10 3.28
                            20 3.43  22 3.54 375 4.12
  35  0.284  0.336  0.702- 267 2.05  21 2.75  40 2.82  37 2.90   8 3.14 369 3.52 378 4.11
  36  0.670  0.681  0.749-  28 2.64  15 2.67   6 2.73  16 2.79   2 3.06  17 3.11  48 3.35
  37  0.398  0.382  0.690- 303 2.04 289 2.14  21 2.75  19 2.88  35 2.90  40 2.99  49 3.00  34 3.07
                           369 3.39  22 3.52  11 3.55 375 3.76
  38  0.376  0.490  0.832-  24 2.82  49 2.82  40 2.84  33 2.85  30 2.87  39 2.87  20 2.97
  39  0.462  0.572  0.862-  30 2.77  33 2.80  47 2.84  38 2.87  13 2.88  31 2.91   5 2.93
  40  0.326  0.413  0.768-  35 2.82  38 2.84  21 2.85  24 2.89  19 2.92   8 2.97  20 2.97  37 2.99
                            49 3.09
  41  0.488  0.266  0.780- 459 1.89  22 2.77  10 2.81  34 2.84  21 2.90  25 2.93  20 2.99   7 3.38

  42  0.423  0.698  0.699- 256 2.03  26 2.74  23 2.78  50 2.79  18 2.88  48 2.94   4 3.25 386 4.03
                           368 4.09
  43  0.701  0.347  0.757-  27 2.75   3 2.80  10 2.81  44 2.82  14 2.89  29 2.91  46 3.15  32 3.55

  44  0.776  0.431  0.795-  14 2.71  43 2.82  29 2.84   1 2.84
  45  0.257  0.591  0.694- 265 2.03 310 2.10   9 2.69   8 2.81  24 2.90  19 3.00   4 3.55 368 3.56
                           373 3.71
  46  0.651  0.445  0.693- 279 2.15  14 2.75  27 2.85   2 2.85  12 3.01   1 3.06  43 3.15  11 3.41
                           370 3.43  29 3.56
  47  0.564  0.639  0.861-  16 2.79   6 2.81  39 2.84  13 2.87  31 2.89   5 2.93
  48  0.543  0.665  0.701- 280 2.11   5 2.75   2 2.86  26 2.89  42 2.94  17 2.95   6 3.15  18 3.33
                            36 3.35 386 3.47
  49  0.444  0.469  0.757-  38 2.82  12 2.83  34 2.87  11 2.88  19 2.92  26 2.92  20 2.99  37 3.00
                            40 3.09   5 3.41
  50  0.372  0.738  0.778-   9 2.76  42 2.79  13 2.81  23 2.82  18 2.85  30 2.98   4 3.03
  51  0.250  0.188  0.454- 448 1.97 418 2.13 319 2.73 342 2.81 360 2.81 327 2.85
  52  0.750  0.938  0.455- 417 1.95 444 2.00 350 2.82 339 2.83 322 2.84 332 2.88
  53  0.749  0.689  0.457- 432 1.97 446 2.04 325 2.78 362 2.84 348 2.85 316 2.88
  54  0.750  0.438  0.456- 422 1.98 458 2.01 323 2.71 347 2.83 359 2.84 349 2.84
  55  0.751  0.190  0.456- 445 1.99 423 2.11 324 2.76 335 2.79 358 2.84 346 2.86
  56  0.417  0.936  0.454- 424 1.99 440 2.01 357 2.77 345 2.79 329 2.87 320 2.91
  57  0.417  0.685  0.455- 414 1.91 443 2.04 356 2.77 344 2.78 321 2.84 331 2.91
  58  0.417  0.435  0.454- 415 1.96 442 2.01 343 2.77 355 2.77 333 2.84 318 2.85
  59  0.085  0.687  0.453- 439 1.97 413 2.08 352 2.75 340 2.80 330 2.82 336 2.94
  60  0.084  0.937  0.453- 436 1.98 412 2.11 353 2.77 341 2.79 326 2.90 338 2.91
  61  0.083  0.437  0.453- 438 1.97 421 2.11 361 2.76 351 2.78 328 2.79 317 2.92
  62  0.084  0.187  0.453- 437 1.98 433 2.12 360 2.76 385 2.78 327 2.87 337 2.90
  63  0.917  0.812  0.454- 434 1.98 411 2.12 362 2.75 339 2.80 341 2.80 336 2.87
  64  0.916  0.562  0.454- 435 1.98 410 2.11 349 2.77 316 2.79 340 2.80 317 2.89
  65  0.251  0.439  0.455- 449 1.98 420 2.06 318 2.70 343 2.81 351 2.85 328 2.85
  66  0.916  0.062  0.454- 455 1.98 430 2.11 358 2.79 385 2.81 332 2.85 338 2.89
  67  0.916  0.312  0.454- 456 1.97 429 2.09 359 2.79 335 2.81 361 2.81 337 2.89
  68  0.417  0.187  0.454- 441 1.98 416 2.08 354 2.79 342 2.79 334 2.81 319 2.86
  69  0.252  0.687  0.456- 419 1.98 450 2.03 321 2.76 344 2.79 352 2.87 330 2.90
  70  0.916  0.937  0.454- 455 1.98 411 2.10 339 2.78 341 2.79 332 2.88 338 2.90
  71  0.583  0.190  0.456- 452 1.97 426 2.10 334 2.71 324 2.76 354 2.84 346 2.86
  72  1.000  0.125  0.498- 430 1.97 433 1.98 385 2.74 337 2.79 338 2.80
  73  0.584  0.810  0.455- 454 1.98 431 2.10 325 2.73 331 2.75 350 2.84 357 2.85
  74  1.000  0.374  0.498- 429 1.94 421 1.95 361 2.73 337 2.77 317 2.85
  75  1.000  0.627  0.498- 413 1.94 410 1.94 340 2.72 336 2.77 317 2.84
  76  0.334  0.125  0.498- 416 1.96 418 2.01 342 2.74 319 2.75 320 2.77 367 3.51
  77  0.000  0.875  0.500- 412 1.97 411 1.97 341 2.78 336 2.78 338 2.80
  78  0.333  0.873  0.499- 424 1.98 425 2.00 321 2.73 345 2.77 320 2.86 372 3.11
  79  0.666  0.126  0.499- 426 1.96 423 2.01 324 2.72 346 2.76 322 2.82 371 3.38
  80  0.336  0.625  0.504- 414 1.92 419 2.09 368 2.73 321 2.81 318 2.82 344 2.92
  81  0.334  0.378  0.503- 415 1.93 420 2.08 369 2.70 318 2.70 343 2.88 319 2.92
  82  0.666  0.379  0.503- 428 1.95 422 2.06 323 2.70 370 2.71 347 2.88 324 2.92
  83  0.915  0.687  0.453- 434 1.97 410 2.10 316 2.75 340 2.80 362 2.80 336 2.94
  84  0.916  0.437  0.454- 435 1.98 429 2.10 359 2.77 349 2.77 361 2.80 317 2.92
  85  0.916  0.187  0.453- 456 1.98 430 2.12 358 2.76 335 2.79 385 2.79 337 2.91
  86  0.583  0.937  0.454- 451 2.00 431 2.06 357 2.79 350 2.80 329 2.85 322 2.87
  87  0.583  0.686  0.455- 427 1.90 454 2.02 356 2.78 348 2.80 325 2.83 331 2.85
  88  0.583  0.440  0.456- 453 2.00 428 2.02 333 2.69 323 2.77 355 2.85 347 2.86
  89  0.250  0.936  0.454- 425 1.93 447 2.01 345 2.78 353 2.78 320 2.90 326 2.93
  90  0.665  0.626  0.503- 427 1.93 432 2.06 380 2.72 325 2.81 323 2.82 348 2.88
  91  0.585  0.563  0.455- 427 1.99 453 2.01 333 2.78 348 2.79 323 2.80 356 2.83
  92  0.583  0.064  0.454- 451 2.00 426 2.03 354 2.78 346 2.78 322 2.87 329 2.88
  93  0.917  0.687  0.361- 434 1.97 340 2.79 316 2.79
  94  0.917  0.437  0.361- 435 1.97 361 2.79 359 2.79
  95  0.917  0.188  0.361- 456 1.97 385 2.79 358 2.79
  96  0.583  0.938  0.361- 451 1.97 357 2.79 350 2.79
  97  0.583  0.687  0.361- 454 1.97 356 2.79 348 2.79
  98  0.583  0.437  0.361- 453 1.97 355 2.79 347 2.79
  99  0.583  0.188  0.361- 452 1.97 354 2.79 346 2.79
 100  0.250  0.938  0.361- 447 1.97 353 2.79 345 2.79
 101  0.917  0.938  0.361- 455 1.97 341 2.79 339 2.79
 102  0.250  0.687  0.361- 450 1.97 352 2.79 344 2.79
 103  0.250  0.188  0.361- 448 1.97 360 2.79 342 2.79
 104  0.750  0.938  0.361- 444 1.97 350 2.79 339 2.79
 105  0.750  0.687  0.361- 446 1.97 348 2.79 316 2.79
 106  0.750  0.437  0.361- 458 1.97 347 2.79 359 2.79
 107  0.750  0.188  0.361- 445 1.97 346 2.79 358 2.79
 108  0.417  0.938  0.361- 440 1.97 345 2.79 357 2.79
 109  0.417  0.687  0.361- 443 1.97 344 2.79 356 2.79
 110  0.417  0.437  0.361- 442 1.97 343 2.79 355 2.79
 111  0.250  0.437  0.361- 449 1.97 351 2.79 343 2.79
 112  0.083  0.063  0.361- 436 1.97 385 2.79 360 2.79
 113  0.083  0.312  0.361- 437 1.97 361 2.79 351 2.79
 114  0.083  0.563  0.361- 438 1.97 352 2.79 340 2.79
 115  0.917  0.312  0.361- 456 1.97 361 2.79 359 2.79
 116  0.917  0.063  0.361- 455 1.97 385 2.79 358 2.79
 117  0.583  0.812  0.361- 454 1.97 357 2.79 350 2.79
 118  0.583  0.563  0.361- 453 1.97 356 2.79 348 2.79
 119  0.583  0.312  0.361- 452 1.97 355 2.79 347 2.79
 120  0.583  0.063  0.361- 451 1.97 354 2.79 346 2.79
 121  0.250  0.812  0.361- 450 1.97 353 2.79 345 2.79
 122  0.250  0.563  0.361- 449 1.97 352 2.79 344 2.79
 123  0.250  0.312  0.361- 448 1.97 351 2.79 343 2.79
 124  0.250  0.063  0.361- 447 1.97 360 2.79 342 2.79
 125  0.750  0.812  0.361- 446 1.97 350 2.79 339 2.79
 126  0.750  0.563  0.361- 458 1.97 348 2.79 316 2.79
 127  0.750  0.312  0.361- 445 1.97 347 2.79 359 2.79
 128  0.750  0.063  0.361- 444 1.97 346 2.79 358 2.79
 129  0.417  0.812  0.361- 443 1.97 345 2.79 357 2.79
 130  0.417  0.563  0.361- 442 1.97 344 2.79 356 2.79
 131  0.417  0.312  0.361- 441 1.97 343 2.79 355 2.79
 132  0.417  0.063  0.361- 440 1.97 342 2.79 354 2.79
 133  0.083  0.812  0.361- 439 1.97 353 2.79 341 2.79
 134  0.417  0.188  0.361- 441 1.97 342 2.79 354 2.79
 135  0.083  0.938  0.361- 436 1.97 353 2.79 341 2.79
 136  0.083  0.687  0.361- 439 1.97 352 2.79 340 2.79
 137  0.083  0.437  0.361- 438 1.97 361 2.79 351 2.79
 138  0.833  0.500  0.407- 458 1.97 435 1.97 316 2.79 359 2.79 349 2.87
 139  0.833  0.750  0.407- 446 1.97 434 1.97 339 2.79 316 2.79 362 2.87
 140  0.084  0.062  0.454- 436 1.98 433 2.11 360 2.80 385 2.81 326 2.84 338 2.88
 141  0.083  0.312  0.454- 437 1.97 421 2.10 351 2.80 361 2.80 337 2.86 327 2.88
 142  0.084  0.563  0.454- 438 1.98 413 2.10 328 2.75 352 2.78 340 2.80 317 2.90
 143  0.083  0.812  0.454- 439 1.98 412 2.11 330 2.77 353 2.80 341 2.81 336 2.88
 144  0.417  0.062  0.455- 416 1.96 440 2.00 354 2.82 342 2.83 329 2.84 320 2.85
 145  0.416  0.311  0.457- 415 1.91 441 2.04 334 2.82 319 2.83 343 2.84 355 2.87
 146  0.416  0.559  0.458- 414 1.97 442 2.02 333 2.73 318 2.74 344 2.88 356 2.90
 147  0.417  0.810  0.455- 443 1.97 424 2.09 321 2.74 331 2.78 345 2.84 357 2.85
 148  0.750  0.064  0.453- 444 1.99 423 2.02 346 2.76 358 2.78 322 2.90 332 2.93
 149  0.747  0.314  0.455- 422 1.98 445 2.02 347 2.75 324 2.82 359 2.83 335 2.93
 150  0.748  0.564  0.454- 432 1.99 458 2.01 348 2.74 323 2.76 316 2.81 349 2.92
 151  0.749  0.813  0.453- 446 1.97 417 2.09 350 2.76 339 2.79 325 2.82 362 2.88
 152  0.250  0.062  0.454- 447 1.98 418 2.11 342 2.81 360 2.81 320 2.84 326 2.87
 153  0.915  0.313  0.547- 429 1.84 409 2.21 335 2.71 337 2.75 363 2.86 381 3.34
 154  0.252  0.314  0.454- 420 1.96 448 2.01 343 2.74 319 2.78 351 2.82 327 2.96
 155  0.252  0.565  0.454- 419 1.99 449 2.01 344 2.74 318 2.76 352 2.80 328 2.93
 156  0.250  0.810  0.455- 450 1.98 425 2.08 321 2.76 330 2.81 345 2.84 353 2.85
 157  0.833  0.250  0.407- 445 1.97 456 1.97 359 2.79 358 2.79 335 2.89
 158  0.584  0.315  0.454- 428 1.94 452 2.02 347 2.74 355 2.78 334 2.88 324 2.88
 159  0.833  0.000  0.407- 444 1.97 455 1.97 358 2.79 339 2.79 332 2.98
 160  0.500  0.500  0.407- 453 1.97 442 1.97 355 2.79 356 2.79 333 2.80
 161  0.083  0.188  0.361- 437 1.97 385 2.79 360 2.79
 162  0.000  0.000  0.407- 455 1.97 436 1.97 385 2.79 341 2.79 338 2.99
 163  0.000  0.250  0.407- 456 1.97 437 1.97 361 2.79 385 2.79 337 2.96
 164  0.000  0.500  0.407- 435 1.97 438 1.97 340 2.79 361 2.79 317 3.00
 165  0.000  0.750  0.407- 434 1.97 439 1.97 341 2.79 340 2.79 336 2.99
 166  0.333  0.000  0.407- 440 1.97 447 1.97 342 2.79 345 2.79 320 2.97
 167  0.333  0.250  0.407- 441 1.97 448 1.97 343 2.79 342 2.79 319 2.87
 168  0.333  0.500  0.407- 442 1.97 449 1.97 343 2.79 344 2.79 318 2.81
 169  0.333  0.750  0.407- 443 1.97 450 1.97 345 2.79 344 2.79 321 2.84
 170  0.667  0.000  0.407- 444 1.97 451 1.97 346 2.79 350 2.79 322 2.95
 171  0.667  0.250  0.407- 445 1.97 452 1.97 347 2.79 346 2.79 324 2.88
 172  0.667  0.500  0.407- 458 1.97 453 1.97 347 2.79 348 2.79 323 2.81
 173  0.667  0.750  0.407- 446 1.97 454 1.97 350 2.79 348 2.79 325 2.86
 174  0.167  0.000  0.407- 447 1.97 436 1.97 360 2.79 353 2.79 326 2.99
 175  0.167  0.250  0.407- 448 1.97 437 1.97 351 2.79 360 2.79 327 2.97
 176  0.167  0.500  0.407- 449 1.97 438 1.97 351 2.79 352 2.79 328 2.85
 177  0.167  0.750  0.407- 450 1.97 439 1.97 353 2.79 352 2.79 330 2.89
 178  0.500  0.000  0.407- 451 1.97 440 1.97 354 2.79 357 2.79 329 2.95
 179  0.500  0.250  0.407- 452 1.97 441 1.97 355 2.79 354 2.79 334 2.86
 180  0.500  0.750  0.407- 454 1.97 443 1.97 357 2.79 356 2.79 331 2.90
 181  0.167  0.125  0.500- 418 1.96 433 2.00 326 2.76 327 2.76 360 2.78
 182  0.918  0.063  0.547- 430 1.84 387 2.20 338 2.70 332 2.72 315 3.21 383 3.24
 183  0.168  0.873  0.500- 425 1.93 412 2.02 330 2.72 353 2.79 326 2.86 374 3.53
 184  0.252  0.188  0.547- 418 1.87 395 2.12 319 2.64 327 2.73 367 3.17 377 3.33
 185  0.749  0.934  0.548- 417 1.82 402 2.27 322 2.77 332 2.78 379 2.92 364 3.16
 186  0.752  0.680  0.553- 400 1.96 432 1.97 380 2.65 365 2.84 362 2.97 325 3.01
 187  0.752  0.435  0.549- 422 1.94 399 2.04 370 2.73 349 2.82 323 2.84 363 2.95
 188  0.423  0.444  0.545- 408 1.88 415 2.06 333 2.61 318 2.84 375 2.87 369 3.12
 189  0.423  0.688  0.546- 414 1.95 398 1.99 331 2.67 386 2.77 321 2.88 368 2.94
 190  0.748  0.184  0.551- 423 1.94 401 1.95 324 2.80 335 2.89 371 2.99 383 3.16
 191  0.416  0.937  0.546- 424 1.84 396 2.26 320 2.71 329 2.73 372 2.88 384 3.06
 192  0.084  0.939  0.546- 412 1.84 406 2.19 326 2.67 338 2.67 374 3.25 366 3.35
 193  0.416  0.190  0.547- 397 1.86 416 2.02 319 2.74 334 2.75 376 3.08 367 3.24
 194  0.087  0.690  0.545- 413 1.86 405 2.22 330 2.62 336 2.72 373 2.78
 195  0.082  0.439  0.545- 421 1.84 404 2.22 317 2.66 328 2.69 378 3.06 381 3.36
 196  0.083  0.189  0.545- 433 1.85 403 2.18 327 2.64 337 2.66 315 3.32 377 3.37
 197  0.500  0.126  0.499- 416 1.98 426 1.99 334 2.73 354 2.77 329 2.83 376 3.22
 198  1.000  0.501  0.594- 457 1.95 404 1.95 317 2.62 381 2.94 382 2.99
 199  1.000  0.753  0.592- 405 1.94 407 1.96 336 2.57 366 2.86 382 3.22
 200  0.335  0.254  0.593- 397 1.88 395 2.08 369 2.68 319 2.71 367 3.05
 201  0.334  0.000  0.592- 396 2.00 394 2.03 320 2.58 372 2.73 367 2.78
 202  1.000  0.999  0.593- 387 2.00 406 2.01 338 2.60 315 2.86 366 2.90
 203  0.001  0.250  0.592- 409 1.94 403 1.99 337 2.58 381 2.93 315 2.97
 204  0.333  0.497  0.590- 408 1.84 390 2.15 318 2.68 369 2.75 368 2.85
 205  0.336  0.741  0.591- 398 1.91 391 2.07 368 2.62 321 2.68 372 3.08
 206  0.664  0.248  0.591- 392 1.89 401 2.14 324 2.63 370 2.78 371 2.81
 207  0.666  0.001  0.592- 393 2.01 402 2.02 322 2.59 379 2.70 371 2.84
 208  0.666  0.742  0.590- 388 1.95 400 2.05 380 2.58 325 2.64 379 3.14
 209  0.667  0.494  0.592- 389 1.82 399 2.13 370 2.72 323 2.73 380 2.97
 210  0.167  0.998  0.592- 394 1.98 406 2.02 326 2.57 374 2.89 377 2.91
 211  0.168  0.249  0.593- 395 1.93 403 2.04 327 2.60 378 2.77 377 2.95
 212  0.171  0.750  0.595- 391 1.86 405 2.15 330 2.76 373 2.76 374 2.84
 213  0.248  0.436  0.549- 390 1.93 420 1.97 369 2.65 318 2.82 328 2.84 378 3.03
 214  0.165  0.502  0.587- 390 1.83 404 2.05 328 2.56 373 2.82 378 2.98
 215  0.250  0.683  0.552- 391 1.96 419 1.98 368 2.72 373 2.89 330 2.92 321 2.93
 216  0.581  0.185  0.550- 426 1.93 392 2.00 334 2.76 324 2.85 376 2.91 371 3.04
 217  0.916  0.813  0.547- 411 1.84 407 2.18 362 2.68 336 2.71 364 3.23 366 3.30
 218  0.917  0.564  0.546- 410 1.84 457 2.23 317 2.69 349 2.72 365 2.85
 219  0.581  0.560  0.549- 389 1.88 427 2.10 386 2.69 333 2.75 380 2.83 323 2.87
 220  0.586  0.815  0.551- 431 1.92 388 2.06 325 2.76 331 2.81 379 2.92 384 3.02
 221  0.583  0.311  0.545- 428 1.89 392 2.12 334 2.73 324 2.74 375 2.79 370 2.86
 222  0.582  0.062  0.545- 426 1.84 393 2.22 329 2.68 322 2.69 376 3.00 371 3.13
 223  0.253  0.813  0.551- 391 1.82 425 2.08 321 2.79 372 2.88 330 2.89 374 3.16
 224  0.252  0.559  0.544- 419 1.92 390 2.03 318 2.64 328 2.78 368 2.88 373 3.18
 225  0.250  0.314  0.546- 420 1.85 395 2.29 369 2.64 327 2.73 319 2.73 378 3.04
 226  0.251  0.062  0.547- 418 1.84 394 2.23 320 2.68 326 2.72 367 3.09 377 3.27
 227  0.748  0.808  0.546- 400 1.84 417 2.03 325 2.67 362 2.75 379 3.15 364 3.31
 228  0.746  0.558  0.545- 432 1.96 399 1.96 323 2.61 349 2.78 380 2.84 365 3.22
 229  0.415  0.812  0.548- 398 1.96 424 1.97 321 2.74 331 2.77 372 2.92 384 3.08
 230  0.748  0.060  0.544- 423 1.84 402 2.21 322 2.63 332 2.68 371 3.17 383 3.35
 231  0.748  0.312  0.548- 422 1.98 401 1.98 370 2.64 324 2.74 335 2.84 363 3.02
 232  0.416  0.319  0.552- 397 1.97 415 1.97 375 2.66 369 2.75 334 2.96 319 2.97
 233  0.421  0.565  0.555- 408 1.90 414 2.12 386 2.65 368 2.71 333 2.92 318 3.06
 234  0.417  0.064  0.547- 416 1.84 396 2.24 320 2.73 329 2.75 376 2.96 367 3.14
 235  0.085  0.813  0.547- 412 1.85 405 2.18 330 2.68 336 2.73 374 3.15 366 3.32
 236  0.082  0.564  0.546- 413 1.84 404 2.23 317 2.69 328 2.74 373 2.82
 237  0.086  0.313  0.547- 421 1.84 403 2.24 327 2.69 337 2.76 378 2.88 381 3.34
 238  0.082  0.063  0.548- 433 1.84 406 2.21 338 2.70 326 2.71 315 3.19 377 3.28
 239  0.916  0.939  0.546- 411 1.84 387 2.21 332 2.66 338 2.70 364 3.24 366 3.32
 240  0.913  0.689  0.545- 410 1.84 407 2.24 362 2.63 336 2.72 365 2.82
 241  0.584  0.938  0.546- 431 1.84 393 2.24 322 2.69 329 2.70 379 2.94 384 3.05
 242  0.917  0.189  0.545- 430 1.85 409 2.17 335 2.66 337 2.68 383 3.29 315 3.33
 243  0.916  0.438  0.546- 429 1.85 457 2.23 349 2.68 317 2.69 363 2.94 381 3.35
 244  0.577  0.436  0.552- 389 1.94 428 2.06 375 2.63 333 2.76 370 2.92 323 3.02
 245  0.580  0.686  0.547- 427 1.92 388 2.12 386 2.65 331 2.71 380 2.81 325 2.85
 246  0.252  0.937  0.545- 425 1.83 394 2.23 320 2.67 326 2.73 372 2.93 374 3.29
 247  0.498  0.504  0.609- 408 2.12  11 2.15 389 2.24 386 2.73 375 3.00 333 3.26
 248  0.499  0.253  0.590- 397 2.02 392 2.02 334 2.63 375 2.65 376 2.95
 249  0.500  0.000  0.591- 396 2.00 393 2.00 329 2.57 376 2.78 384 2.80
 250  0.753  0.694  0.656-  28 2.06  15 2.11 400 2.35 365 3.00 380 3.16
 251  0.748  0.937  0.640- 402 1.80 364 2.49 379 2.53
 252  0.253  0.187  0.641- 395 1.74 367 2.51 377 2.55
 253  0.746  0.195  0.647- 401 1.99   3 2.07 371 2.67 383 2.72
 254  0.755  0.436  0.639- 399 1.99  14 2.01 363 2.60 370 2.81
 255  0.417  0.935  0.640- 396 1.80 384 2.53 372 2.58
 256  0.421  0.675  0.633- 398 2.03  42 2.03 386 2.55 368 2.62
 257  0.591  0.810  0.646- 388 1.95  17 2.08 379 2.64 384 2.84
 258  0.916  0.063  0.642- 387 1.80 383 2.49 315 2.50
 259  0.913  0.562  0.642- 457 1.79 382 2.47 365 2.53
 260  0.915  0.312  0.640- 409 1.80 381 2.50 363 2.52
 261  0.914  0.813  0.641- 407 1.79 364 2.50 366 2.51
 262  0.582  0.066  0.639- 393 1.79 371 2.50 376 2.51
 263  0.583  0.320  0.634- 392 1.95  27 2.04 375 2.53 370 2.67
 264  0.592  0.565  0.640- 389 1.98   2 2.09 380 2.63 386 2.82
 265  0.247  0.573  0.628- 390 1.99  45 2.03 373 2.55 368 2.55
 266  0.262  0.798  0.647- 391 1.95   4 2.07 372 2.81 374 2.96
 267  0.249  0.317  0.641- 395 1.94  35 2.05 378 2.58 369 2.65
 268  0.251  0.060  0.642- 394 1.79 367 2.49 377 2.50
 269  0.917  0.563  0.361- 435 1.97 340 2.79 316 2.79
 270  0.500  0.374  0.500- 415 1.98 428 1.99 355 2.78 333 2.80 334 2.83 375 2.85
 271  0.500  0.873  0.501- 424 1.98 431 1.99 331 2.69 329 2.81 357 2.81 384 3.25
 272  0.501  0.621  0.500- 427 1.98 414 1.98 333 2.71 356 2.80 386 2.82 331 2.94
 273  0.832  0.623  0.500- 432 1.89 410 2.05 349 2.75 316 2.79 362 2.88 365 3.09
 274  0.833  0.874  0.499- 417 1.95 411 2.01 362 2.74 339 2.75 332 2.82
 275  0.833  0.373  0.500- 422 1.89 429 2.04 359 2.78 335 2.79 349 2.83 363 3.13
 276  0.833  0.124  0.500- 423 1.95 430 2.01 335 2.77 332 2.78 358 2.78
 277  0.167  0.376  0.498- 420 1.90 421 2.02 351 2.72 328 2.77 327 2.86 378 3.29
 278  0.168  0.624  0.500- 419 1.89 413 2.06 328 2.78 352 2.79 330 2.84 373 3.05
 279  0.581  0.439  0.647-  11 2.11 389 2.12  46 2.15 375 2.88 370 3.07
 280  0.580  0.685  0.639- 388 1.87  48 2.11 386 2.63 380 2.79
 281  0.917  0.187  0.641- 409 1.79 383 2.49 315 2.52
 282  0.582  0.936  0.639- 393 1.80 384 2.50 379 2.51
 283  0.831  0.751  0.593- 400 1.86 407 2.09 362 2.71 365 2.80 364 2.89
 284  0.832  0.248  0.591- 401 1.84 409 2.11 335 2.65 363 2.80 383 2.87
 285  0.833  0.503  0.589- 399 1.83 457 2.06 349 2.58 365 2.80 363 2.95
 286  0.832  0.002  0.592- 402 1.99 387 2.02 332 2.58 383 2.86 364 2.91
 287  0.502  0.756  0.593- 388 1.98 398 2.02 331 2.68 384 2.74 386 2.92
 288  0.418  0.066  0.640- 396 1.80 367 2.49 376 2.54
 289  0.428  0.307  0.652-  22 2.13  37 2.14 397 2.27 375 2.83 369 3.35
 290  0.414  0.813  0.640- 398 1.96  23 2.06 372 2.63 384 2.67
 291  0.397  0.551  0.652-  26 2.11  19 2.11 408 2.16 368 2.79 386 3.49
 292  0.753  0.570  0.634- 399 1.93  15 2.08 365 2.60 380 2.70
 293  0.741  0.810  0.640- 400 1.98  28 2.04 379 2.59 364 2.69
 294  0.747  0.313  0.641- 401 2.01   3 2.06 370 2.65 363 2.75
 295  0.748  0.067  0.639- 402 1.80 371 2.47 383 2.48
 296  0.084  0.312  0.640- 403 1.80 381 2.49 378 2.51
 297  0.667  0.875  0.499- 431 1.97 417 2.00 325 2.74 350 2.76 322 2.81 379 3.24
 298  0.087  0.562  0.641- 404 1.80 382 2.48 373 2.53
 299  0.084  0.060  0.642- 406 1.80 377 2.49 315 2.51
 300  0.087  0.437  0.639- 404 1.79 378 2.51 381 2.52
 301  0.084  0.186  0.641- 403 1.79 315 2.50 377 2.50
 302  0.421  0.190  0.641- 397 1.98  22 2.05 376 2.63 367 2.73
 303  0.414  0.420  0.630-  37 2.04 408 2.05 375 2.55 369 2.59
 304  0.084  0.935  0.640- 406 1.80 374 2.48 366 2.49
 305  0.083  0.687  0.640- 405 1.80 382 2.46 373 2.52
 306  0.913  0.436  0.640- 457 1.80 363 2.52 381 2.53
 307  0.916  0.688  0.639- 407 1.80 382 2.46 365 2.50
 308  0.914  0.937  0.641- 387 1.80 364 2.47 366 2.50
 309  0.241  0.442  0.641- 390 1.90   8 2.10 378 2.62 369 2.92
 310  0.256  0.676  0.663-   4 2.07  45 2.10 368 2.99 373 3.15
 311  0.580  0.192  0.646- 392 1.90  25 2.15 376 2.70 371 2.72
 312  0.252  0.930  0.637- 394 1.81 374 2.47 372 2.49
 313  0.084  0.812  0.642- 405 1.79 374 2.48 366 2.53
 314  0.917  0.812  0.361- 434 1.97 341 2.79 339 2.79
 315  0.001  0.123  0.620- 301 2.50 258 2.50 299 2.51 281 2.52 202 2.86 203 2.97 238 3.19 182 3.21
                           196 3.32 242 3.33 387 3.41 406 3.42 409 3.44 403 3.45 433 3.92 430 3.93
 316  0.833  0.625  0.407-  83 2.75  64 2.79 273 2.79 126 2.79 105 2.79 269 2.79  93 2.79 138 2.79
                           139 2.79 150 2.81  53 2.88 458 3.42 446 3.42 435 3.42 434 3.42 432 3.44
 317  1.000  0.501  0.507- 198 2.62 195 2.66 218 2.69 236 2.69 243 2.69  75 2.84  74 2.85  64 2.89
                           142 2.90  84 2.92  61 2.92 164 3.00 410 3.39 413 3.40 429 3.41 421 3.42
 318  0.331  0.499  0.501- 224 2.64 204 2.68  65 2.70  81 2.70 146 2.74 155 2.76 168 2.81  80 2.82
                           213 2.82 188 2.84  58 2.85 233 3.06 408 3.35 449 3.40 419 3.42 415 3.44
 319  0.330  0.248  0.503- 184 2.64 200 2.71 225 2.73  51 2.73 193 2.74  76 2.75 154 2.78 145 2.83
                            68 2.86 167 2.87  81 2.92 232 2.97 397 3.32 418 3.36 420 3.42 448 3.44
 320  0.333  0.001  0.506- 201 2.58 246 2.67 226 2.68 191 2.71 234 2.73  76 2.77 152 2.84 144 2.85
                            78 2.86  89 2.90  56 2.91 166 2.97 416 3.33 425 3.38 418 3.39 424 3.41
 321  0.334  0.751  0.502- 205 2.68  78 2.73 147 2.74 229 2.74 156 2.76  69 2.76 223 2.79  80 2.81
                           169 2.84  57 2.84 189 2.88 215 2.93 391 3.38 398 3.40 414 3.42 424 3.42
 322  0.666  0.000  0.505- 207 2.59 230 2.63 241 2.69 222 2.69 185 2.77 297 2.81  79 2.82  52 2.84
                            86 2.87  92 2.87 148 2.90 170 2.95 417 3.38 426 3.38 423 3.38 431 3.39
 323  0.669  0.500  0.501- 228 2.61  82 2.70  54 2.71 209 2.73 150 2.76  88 2.77  91 2.80 172 2.81
                            90 2.82 187 2.84 219 2.87 244 3.02 389 3.35 458 3.41 422 3.41 432 3.42
 324  0.667  0.248  0.503- 206 2.63  79 2.72 231 2.74 221 2.74  55 2.76  71 2.76 190 2.80 149 2.82
                           216 2.85 171 2.88 158 2.88  82 2.92 426 3.40 401 3.42 428 3.43 423 3.43
 325  0.665  0.752  0.502- 208 2.64 227 2.67  73 2.73 297 2.74 220 2.76  53 2.78  90 2.81 151 2.82
                            87 2.83 245 2.85 173 2.86 186 3.01 400 3.35 431 3.38 427 3.39 454 3.46
 326  0.166  0.001  0.507- 210 2.57 192 2.67 238 2.71 226 2.72 246 2.73 181 2.76 140 2.84 183 2.86
                           152 2.87  60 2.90  89 2.93 174 2.99 425 3.37 418 3.38 433 3.39 412 3.43
 327  0.166  0.248  0.506- 211 2.60 196 2.64 237 2.69 184 2.73 225 2.73 181 2.76  51 2.85 277 2.86
                            62 2.87 141 2.88 154 2.96 175 2.97 420 3.37 433 3.39 418 3.39 421 3.46
 328  0.163  0.500  0.502- 214 2.56 195 2.69 236 2.74 142 2.75 277 2.77 278 2.78 224 2.78  61 2.79
                           213 2.84 176 2.85  65 2.85 155 2.93 390 3.32 421 3.40 438 3.42 413 3.42
 329  0.500  0.999  0.505- 249 2.57 222 2.68 241 2.70 191 2.73 234 2.75 271 2.81 197 2.83 144 2.84
                            86 2.85  56 2.87  92 2.88 178 2.95 424 3.38 416 3.38 431 3.39 426 3.40
 330  0.164  0.752  0.503- 194 2.62 235 2.68 183 2.72 212 2.76 143 2.77 156 2.81  59 2.82 278 2.84
                           223 2.89 177 2.89  69 2.90 215 2.92 391 3.34 412 3.37 413 3.43 419 3.45
 331  0.501  0.753  0.504- 189 2.67 287 2.68 271 2.69 245 2.71  73 2.75 229 2.77 147 2.78 220 2.81
                            87 2.85 180 2.90  57 2.91 272 2.94 398 3.37 431 3.37 424 3.42 427 3.42
 332  0.834  0.000  0.506- 286 2.58 239 2.66 230 2.68 182 2.72 276 2.78 185 2.78 274 2.82  66 2.85
                            52 2.88  70 2.88 148 2.93 159 2.98 417 3.36 423 3.36 411 3.41 430 3.41
 333  0.501  0.500  0.500- 188 2.61  88 2.69 272 2.71 146 2.73 219 2.75 244 2.76  91 2.78 160 2.80
                           270 2.80  58 2.84 233 2.92 247 3.26 453 3.40 428 3.43 442 3.44 427 3.45
 334  0.501  0.248  0.502- 248 2.63  71 2.71 197 2.73 221 2.73 193 2.75 216 2.76  68 2.81 145 2.82
                           270 2.83 179 2.86 158 2.88 232 2.96 397 3.37 426 3.39 428 3.41 452 3.46
 335  0.835  0.248  0.503- 284 2.65 242 2.66 153 2.71 276 2.77  85 2.79 275 2.79  55 2.79  67 2.81
                           231 2.84 157 2.89 190 2.89 149 2.93 401 3.34 430 3.38 429 3.43 422 3.44
 336  1.000  0.751  0.507- 199 2.57 217 2.71 240 2.72 194 2.72 235 2.73  75 2.77  77 2.78  63 2.87
                           143 2.88  83 2.94  59 2.94 165 2.99 413 3.39 410 3.39 412 3.40 411 3.40
 337  0.001  0.250  0.506- 203 2.58 196 2.66 242 2.68 153 2.75 237 2.76  74 2.77  72 2.79 141 2.86
                            67 2.89  62 2.90  85 2.91 163 2.96 421 3.39 429 3.39 433 3.40 430 3.41
 338  1.000  0.000  0.507- 202 2.60 192 2.67 239 2.70 182 2.70 238 2.70  77 2.80  72 2.80 140 2.88
                            66 2.89  70 2.90  60 2.91 162 2.99 411 3.40 430 3.40 412 3.41 433 3.41
 339  0.833  0.875  0.407- 274 2.75  70 2.78 151 2.79 125 2.79 104 2.79 314 2.79 101 2.79 139 2.79
                           159 2.79  63 2.80  52 2.83 446 3.42 434 3.42 444 3.42 455 3.42 417 3.48
 340  0.000  0.625  0.407-  75 2.72 269 2.79  93 2.79 114 2.79 136 2.79 164 2.79 165 2.79  83 2.80
                            59 2.80  64 2.80 142 2.80 435 3.42 434 3.42 438 3.42 439 3.42 413 3.53
 341  0.000  0.875  0.407-  77 2.78  60 2.79 314 2.79 133 2.79 101 2.79 135 2.79 165 2.79 162 2.79
                            70 2.79  63 2.80 143 2.81 434 3.42 439 3.42 455 3.42 436 3.42 412 3.57
 342  0.333  0.125  0.407-  76 2.74 132 2.79 134 2.79 124 2.79 103 2.79 166 2.79 167 2.79  68 2.79
                            51 2.81 152 2.81 144 2.83 440 3.42 441 3.42 447 3.42 448 3.42 416 3.48
 343  0.333  0.375  0.407- 154 2.74  58 2.77 110 2.79 131 2.79 111 2.79 123 2.79 167 2.79 168 2.79
                            65 2.81 145 2.84  81 2.88 441 3.42 442 3.42 448 3.42 449 3.42 415 3.42
 344  0.333  0.625  0.407- 155 2.74  57 2.78  69 2.79 130 2.79 109 2.79 122 2.79 102 2.79 168 2.79
                           169 2.79 146 2.88  80 2.92 442 3.42 443 3.42 449 3.42 450 3.42 414 3.44
 345  0.333  0.875  0.407-  78 2.77  89 2.78  56 2.79 129 2.79 121 2.79 108 2.79 100 2.79 169 2.79
                           166 2.79 156 2.84 147 2.84 443 3.42 450 3.42 440 3.42 447 3.42 425 3.49
 346  0.667  0.125  0.407-  79 2.76 148 2.76  92 2.78 128 2.79 107 2.79 120 2.79  99 2.79 170 2.79
                           171 2.79  55 2.86  71 2.86 444 3.42 445 3.42 451 3.42 452 3.42 426 3.53
 347  0.667  0.375  0.407- 158 2.74 149 2.75 106 2.79 127 2.79  98 2.79 119 2.79 171 2.79 172 2.79
                            54 2.83  88 2.86  82 2.88 445 3.42 458 3.42 453 3.42 452 3.42 428 3.46
 348  0.667  0.625  0.407- 150 2.74  91 2.79 126 2.79 105 2.79 118 2.79  97 2.79 172 2.79 173 2.79
                            87 2.80  53 2.85  90 2.88 458 3.42 446 3.42 453 3.42 454 3.42 427 3.42
 349  0.836  0.500  0.503- 285 2.58 243 2.68 218 2.72 273 2.75  84 2.77  64 2.77 228 2.78 187 2.82
                           275 2.83  54 2.84 138 2.87 150 2.92 399 3.34 422 3.41 429 3.41 432 3.42
 350  0.667  0.875  0.407- 297 2.76 151 2.76 125 2.79 104 2.79 117 2.79  96 2.79 173 2.79 170 2.79
                            86 2.80  52 2.82  73 2.84 446 3.42 454 3.42 444 3.42 451 3.42 417 3.50
 351  0.167  0.375  0.407- 277 2.72  61 2.78 111 2.79 137 2.79 123 2.79 113 2.79 176 2.79 175 2.79
                           141 2.80 154 2.82  65 2.85 448 3.42 449 3.42 437 3.42 438 3.42 420 3.44
 352  0.167  0.625  0.407-  59 2.75 142 2.78 122 2.79 102 2.79 114 2.79 136 2.79 176 2.79 177 2.79
                           278 2.79 155 2.80  69 2.87 449 3.42 450 3.42 438 3.42 439 3.42 419 3.45
 353  0.167  0.875  0.407-  60 2.77  89 2.78 183 2.79 121 2.79 133 2.79 100 2.79 135 2.79 177 2.79
                           174 2.79 143 2.80 156 2.85 450 3.42 439 3.42 447 3.42 436 3.42 425 3.47
 354  0.500  0.125  0.407- 197 2.77  92 2.78  68 2.79 120 2.79  99 2.79 132 2.79 134 2.79 178 2.79
                           179 2.79 144 2.82  71 2.84 451 3.42 452 3.42 440 3.42 441 3.42 416 3.50
 355  0.500  0.375  0.407-  58 2.77 158 2.78 270 2.78  98 2.79 119 2.79 110 2.79 131 2.79 179 2.79
                           160 2.79  88 2.85 145 2.87 452 3.42 453 3.42 441 3.42 442 3.42 415 3.44
 356  0.500  0.625  0.407-  57 2.77  87 2.78 118 2.79  97 2.79 130 2.79 109 2.79 160 2.79 180 2.79
                           272 2.80  91 2.83 146 2.90 453 3.42 454 3.42 442 3.42 443 3.42 427 3.44
 357  0.500  0.875  0.407-  56 2.77  86 2.79 117 2.79 129 2.79  96 2.79 108 2.79 180 2.79 178 2.79
                           271 2.81 147 2.85  73 2.85 454 3.42 443 3.42 451 3.42 440 3.42 424 3.51
 358  0.833  0.125  0.407-  85 2.76 148 2.78 276 2.78 128 2.79 107 2.79 116 2.79  95 2.79 159 2.79
                           157 2.79  66 2.79  55 2.84 444 3.42 445 3.42 455 3.42 456 3.42 423 3.53
 359  0.833  0.375  0.407-  84 2.77 275 2.78  67 2.79 106 2.79 127 2.79  94 2.79 115 2.79 157 2.79
                           138 2.79 149 2.83  54 2.84 445 3.42 458 3.42 456 3.42 435 3.42 422 3.44
 360  0.167  0.125  0.407-  62 2.76 181 2.78 124 2.79 103 2.79 112 2.79 161 2.79 174 2.79 175 2.79
                           140 2.80 152 2.81  51 2.81 447 3.42 448 3.42 436 3.42 437 3.42 418 3.58
 361  0.000  0.375  0.407-  74 2.73  61 2.76  94 2.79 115 2.79 137 2.79 113 2.79 163 2.79 164 2.79
                           141 2.80  84 2.80  67 2.81 435 3.42 456 3.42 438 3.42 437 3.42 429 3.54
 362  0.836  0.752  0.503- 240 2.63 217 2.68 283 2.71 274 2.74 227 2.75  63 2.75  83 2.80  53 2.84
                           139 2.87 273 2.88 151 2.88 186 2.97 400 3.31 411 3.37 410 3.43 434 3.45
 363  0.837  0.372  0.604- 306 2.52 260 2.52 254 2.60 294 2.75 284 2.80 153 2.86 243 2.94 187 2.95
                           285 2.95 231 3.02 275 3.13 409 3.39 401 3.41 457 3.44 399 3.48 429 3.52
 364  0.832  0.876  0.618- 308 2.47 251 2.49 261 2.50 293 2.69 283 2.89 286 2.91 185 3.16 217 3.23
                           239 3.24 227 3.31 387 3.44 402 3.44 400 3.45 407 3.47 411 3.90 366 3.95
 365  0.840  0.627  0.603- 307 2.50 259 2.53 292 2.60 283 2.80 285 2.80 240 2.82 186 2.84 218 2.85
                           250 3.00 273 3.09 228 3.22 407 3.34 457 3.38 399 3.42 410 3.44 400 3.52
 366  0.999  0.875  0.622- 304 2.49 308 2.50 261 2.51 313 2.53 199 2.86 202 2.90 217 3.30 239 3.32
                           235 3.32 192 3.35 407 3.40 405 3.42 406 3.45 387 3.46 364 3.95 411 3.95
 367  0.332  0.121  0.615- 268 2.49 288 2.49 252 2.51 302 2.73 201 2.78 200 3.05 226 3.09 234 3.14
                           184 3.17 193 3.24 396 3.37 394 3.38 395 3.44  76 3.51 397 3.53 418 3.80
 368  0.334  0.624  0.595- 265 2.55 256 2.62 205 2.62 233 2.71 215 2.72  80 2.73 291 2.79 204 2.85
                           224 2.88 189 2.94 310 2.99 408 3.37 398 3.41 414 3.44 419 3.45 391 3.50
 369  0.326  0.374  0.592- 303 2.59 225 2.64 213 2.65 267 2.65 200 2.68  81 2.70 232 2.75 204 2.75
                           309 2.92 188 3.12 420 3.29 289 3.35  37 3.39 390 3.40 395 3.41 408 3.42
 370  0.671  0.372  0.593- 231 2.64 294 2.65 263 2.67  82 2.71 209 2.72 187 2.73 206 2.78 254 2.81
                           221 2.86 244 2.92 279 3.07 422 3.34 401 3.38 428 3.43  46 3.43 392 3.45
 371  0.666  0.125  0.612- 295 2.47 262 2.50 253 2.67 311 2.72 206 2.81 207 2.84 190 2.99 216 3.04
                           222 3.13 230 3.17 392 3.37  79 3.38 393 3.40 402 3.40 401 3.49 426 3.75
 372  0.335  0.878  0.603- 312 2.49 255 2.58 290 2.63 201 2.73 266 2.81 223 2.88 191 2.88 229 2.92
                           246 2.93 205 3.08  78 3.11 394 3.34 396 3.35 391 3.47 398 3.48 424 3.55
 373  0.159  0.627  0.601- 305 2.52 298 2.53 265 2.55 212 2.76 194 2.78 214 2.82 236 2.82 215 2.89
                           278 3.05 310 3.15 224 3.18 405 3.33 404 3.38 413 3.41 390 3.50 391 3.53
 374  0.166  0.873  0.617- 312 2.47 304 2.48 313 2.48 212 2.84 210 2.89 266 2.96 235 3.15 223 3.16
                           192 3.25 246 3.29 391 3.42 405 3.43 394 3.44 406 3.44 183 3.53 412 3.86
 375  0.501  0.371  0.595- 263 2.53 303 2.55 244 2.63 248 2.65 232 2.66 221 2.79 289 2.83 270 2.85
                           188 2.87 279 2.88 247 3.00 392 3.39 428 3.40 397 3.43 415 3.47 408 3.54
 376  0.500  0.123  0.607- 262 2.51 288 2.54 302 2.63 311 2.70 249 2.78 216 2.91 248 2.95 234 2.96
                           222 3.00 193 3.08 197 3.22 393 3.34 396 3.37 392 3.43 397 3.50 426 3.63
 377  0.168  0.123  0.622- 299 2.49 268 2.50 301 2.50 252 2.55 210 2.91 211 2.95 226 3.27 238 3.28
                           184 3.33 196 3.37 395 3.39 394 3.44 406 3.45 403 3.48 367 3.89 418 3.95
 378  0.163  0.372  0.607- 300 2.51 296 2.51 267 2.58 309 2.62 211 2.77 237 2.88 214 2.98 213 3.03
                           225 3.04 195 3.06 277 3.29 403 3.34 390 3.41 404 3.46 395 3.46 421 3.60
 379  0.665  0.881  0.607- 282 2.51 251 2.53 293 2.59 257 2.64 207 2.70 185 2.92 220 2.92 241 2.94
                           208 3.14 227 3.15 297 3.24 393 3.32 402 3.36 388 3.50 400 3.56 431 3.60
 380  0.666  0.627  0.593- 208 2.58 264 2.63 186 2.65 292 2.70  90 2.72 280 2.79 245 2.81 219 2.83
                           228 2.84 209 2.97 250 3.16 389 3.32 388 3.37  15 3.39 427 3.40 432 3.41
 381  1.000  0.375  0.623- 296 2.49 260 2.50 300 2.52 306 2.53 203 2.93 198 2.94 153 3.34 237 3.34
                           243 3.35 195 3.36 409 3.45 457 3.45 404 3.45 403 3.49 378 3.89 363 3.90
 382  1.000  0.622  0.637- 305 2.46 307 2.46 259 2.47 298 2.48 198 2.99 199 3.22 457 3.48 404 3.48
                           405 3.60 407 3.62 365 3.91 373 3.92 317 4.74 336 4.85
 383  0.833  0.125  0.619- 295 2.48 258 2.49 281 2.49 253 2.72 286 2.86 284 2.87 190 3.16 182 3.24
                           242 3.29 230 3.35 401 3.42 402 3.42 387 3.43 409 3.46 430 3.93 423 3.95
 384  0.501  0.877  0.609- 282 2.50 255 2.53 290 2.67 287 2.74 249 2.80 257 2.84 220 3.02 241 3.05
                           191 3.06 229 3.08 271 3.25 393 3.39 396 3.40 388 3.47 398 3.50 431 3.67
 385  0.000  0.125  0.407-  72 2.74  62 2.78 116 2.79  95 2.79 112 2.79 161 2.79 162 2.79 163 2.79
                            85 2.79  66 2.81 140 2.81 455 3.42 456 3.42 436 3.42 437 3.42 430 3.57
 386  0.504  0.625  0.594- 256 2.55 280 2.63 245 2.65 233 2.65 219 2.69 247 2.73 189 2.77 272 2.82
                           264 2.82 287 2.92 427 3.38 388 3.38 389 3.43  48 3.47 414 3.47 398 3.47
 387  0.916  0.000  0.604- 258 1.80 308 1.80 202 2.00 286 2.02 182 2.20 239 2.21 315 3.41 383 3.43
                           364 3.44 366 3.46 332 3.51 338 3.53
 388  0.585  0.750  0.600- 280 1.87 257 1.95 208 1.95 287 1.98 220 2.06 245 2.12 380 3.37 386 3.38
                           384 3.47 331 3.48 325 3.49 379 3.50
 389  0.590  0.501  0.594- 209 1.82 219 1.88 244 1.94 264 1.98 279 2.12 247 2.24  11 3.15 380 3.32
                           323 3.35 386 3.43 370 3.46 333 3.51 375 3.59
 390  0.242  0.498  0.593- 214 1.83 309 1.90 213 1.93 265 1.99 224 2.03 204 2.15 328 3.32 369 3.40
                           378 3.41 318 3.49 373 3.50 368 3.56
 391  0.249  0.753  0.592- 223 1.82 212 1.86 266 1.95 215 1.96 205 2.07 330 3.34 321 3.38 374 3.42
                           372 3.47 368 3.50 373 3.53
 392  0.584  0.248  0.598- 206 1.89 311 1.90 263 1.95 216 2.00 248 2.02 221 2.12 371 3.37 375 3.39
                           376 3.43 370 3.45 324 3.45 334 3.47
 393  0.583  0.001  0.604- 262 1.79 282 1.80 249 2.00 207 2.01 222 2.22 241 2.24 379 3.32 376 3.34
                           384 3.39 371 3.40 329 3.55 322 3.56
 394  0.250  0.998  0.604- 268 1.79 312 1.81 210 1.98 201 2.03 246 2.23 226 2.23 372 3.34 367 3.38
                           374 3.44 377 3.44 326 3.54 320 3.55
 395  0.249  0.246  0.603- 252 1.74 211 1.93 267 1.94 200 2.08 184 2.12 225 2.29 377 3.39 369 3.41
                           367 3.44 378 3.46 327 3.51 319 3.58
 396  0.417  0.000  0.605- 255 1.80 288 1.80 249 2.00 201 2.00 234 2.24 191 2.26 372 3.35 376 3.37
                           367 3.37 384 3.40 320 3.57 329 3.57
 397  0.414  0.248  0.591- 193 1.86 200 1.88 232 1.97 302 1.98 248 2.02 289 2.27  22 3.23 319 3.32
                           334 3.37 375 3.43 369 3.50 376 3.50 367 3.53
 398  0.416  0.750  0.594- 205 1.91 229 1.96 290 1.96 189 1.99 287 2.02 256 2.03 331 3.37 321 3.40
                           368 3.41 386 3.47 372 3.48 384 3.50
 399  0.756  0.503  0.595- 285 1.83 292 1.93 228 1.96 254 1.99 187 2.04 209 2.13 349 3.34 365 3.42
                           363 3.48 380 3.49 323 3.51 370 3.55
 400  0.752  0.752  0.591- 227 1.84 283 1.86 186 1.96 293 1.98 208 2.05 250 2.35  28 3.13 362 3.31
                           325 3.35 364 3.45 380 3.46 365 3.52 379 3.56
 401  0.754  0.248  0.594- 284 1.84 190 1.95 231 1.98 253 1.99 294 2.01 206 2.14   3 3.06 335 3.34
                           370 3.38 363 3.41 324 3.42 383 3.42 371 3.49
 402  0.749  0.002  0.604- 295 1.80 251 1.80 286 1.99 207 2.02 230 2.21 185 2.27 379 3.36 371 3.40
                           383 3.42 364 3.44 332 3.55 322 3.56
 403  0.083  0.248  0.604- 301 1.79 296 1.80 203 1.99 211 2.04 196 2.18 237 2.24 378 3.34 315 3.45
                           377 3.48 381 3.49 327 3.52 337 3.52
 404  0.081  0.500  0.603- 300 1.79 298 1.80 198 1.95 214 2.05 195 2.22 236 2.23 373 3.38 381 3.45
                           378 3.46 317 3.47 382 3.48 328 3.60
 405  0.080  0.751  0.603- 313 1.79 305 1.80 199 1.94 212 2.15 235 2.18 194 2.22 373 3.33 366 3.42
                           374 3.43 336 3.47 330 3.60 382 3.60
 406  0.084  0.999  0.604- 304 1.80 299 1.80 202 2.01 210 2.02 192 2.19 238 2.21 315 3.42 374 3.44
                           377 3.45 366 3.45 326 3.51 338 3.52
 407  0.918  0.752  0.603- 261 1.79 307 1.80 199 1.96 283 2.09 217 2.18 240 2.24 365 3.34 366 3.40
                           364 3.47 336 3.49 362 3.59 382 3.62
 408  0.411  0.497  0.593- 204 1.84 188 1.88 233 1.90 303 2.05 247 2.12 291 2.16 318 3.35 368 3.37
                           369 3.42 333 3.51 375 3.54 386 3.60
 409  0.920  0.249  0.603- 281 1.79 260 1.80 203 1.94 284 2.11 242 2.17 153 2.21 363 3.39 315 3.44
                           381 3.45 383 3.46 337 3.48 335 3.59
 410  0.918  0.626  0.506- 218 1.84 240 1.84  75 1.94 273 2.05  83 2.10  64 2.11 317 3.39 336 3.39
                           349 3.42 362 3.43 365 3.44 340 3.54 316 3.59
 411  0.917  0.876  0.507- 239 1.84 217 1.84  77 1.97 274 2.01  70 2.10  63 2.12 362 3.37 338 3.40
                           336 3.40 332 3.41 341 3.58 339 3.59 364 3.90 366 3.95
 412  0.083  0.875  0.507- 192 1.84 235 1.85  77 1.97 183 2.02  60 2.11 143 2.11 330 3.37 336 3.40
                           338 3.41 326 3.43 341 3.57 353 3.59 374 3.86 366 3.98
 413  0.081  0.626  0.506- 236 1.84 194 1.86  75 1.94 278 2.06  59 2.08 142 2.10 336 3.39 317 3.40
                           373 3.41 328 3.42 330 3.43 340 3.53 352 3.59
 414  0.417  0.626  0.501-  57 1.91  80 1.92 189 1.95 146 1.97 272 1.98 233 2.12 321 3.42 356 3.44
                           368 3.44 344 3.44 333 3.45 331 3.47 386 3.47 318 3.48
 415  0.416  0.374  0.501- 145 1.91  81 1.93  58 1.96 232 1.97 270 1.98 188 2.06 343 3.42 318 3.44
                           355 3.44 333 3.46 334 3.47 375 3.47 319 3.48 369 3.48
 416  0.416  0.122  0.503- 234 1.84  76 1.96 144 1.96 197 1.98 193 2.02  68 2.08 320 3.33 329 3.38
                           334 3.46 319 3.47 342 3.48 354 3.50 376 3.70 367 3.92
 417  0.751  0.879  0.503- 185 1.82 274 1.95  52 1.95 297 2.00 227 2.03 151 2.09 332 3.36 322 3.38
                           362 3.47 325 3.47 339 3.48 350 3.50 379 3.72 364 3.96
 418  0.249  0.124  0.507- 226 1.84 184 1.87 181 1.96  76 2.01 152 2.11  51 2.13 319 3.36 326 3.38
                           327 3.39 320 3.39 360 3.58 342 3.60 367 3.80 377 3.95
 419  0.248  0.625  0.503- 278 1.89 224 1.92 215 1.98  69 1.98 155 1.99  80 2.09 318 3.42 328 3.43
                           368 3.45 330 3.45 352 3.45 321 3.48 344 3.52 373 3.63
 420  0.246  0.373  0.503- 225 1.85 277 1.90 154 1.96 213 1.97  65 2.06  81 2.08 369 3.29 327 3.37
                           319 3.42 351 3.44 328 3.45 318 3.46 343 3.53 378 3.71
 421  0.082  0.375  0.506- 237 1.84 195 1.84  74 1.95 277 2.02 141 2.10  61 2.11 337 3.39 328 3.40
                           317 3.42 327 3.46 361 3.54 351 3.59 378 3.60 381 4.00
 422  0.753  0.375  0.502- 275 1.89 187 1.94 231 1.98 149 1.98  54 1.98  82 2.06 370 3.34 349 3.41
                           323 3.41 359 3.44 335 3.44 324 3.49 347 3.51 363 3.65
 423  0.751  0.122  0.505- 230 1.84 190 1.94 276 1.95  79 2.01 148 2.02  55 2.11 332 3.36 322 3.38
                           324 3.43 335 3.46 358 3.53 346 3.55 371 3.79 383 3.95
 424  0.417  0.877  0.504- 191 1.84 229 1.97  78 1.98 271 1.98  56 1.99 147 2.09 329 3.38 320 3.41
                           331 3.42 321 3.42 345 3.51 357 3.51 372 3.55 384 3.73
 425  0.249  0.879  0.503- 246 1.83 183 1.93  89 1.93  78 2.00 223 2.08 156 2.08 326 3.37 320 3.38
                           353 3.47 330 3.48 321 3.48 345 3.49 372 3.63 374 3.97
 426  0.583  0.124  0.505- 222 1.84 216 1.93  79 1.96 197 1.99  92 2.03  71 2.10 322 3.38 334 3.39
                           329 3.40 324 3.40 346 3.53 354 3.54 376 3.63 371 3.75
 427  0.584  0.627  0.501-  87 1.90 245 1.92  90 1.93 272 1.98  91 1.99 219 2.10 386 3.38 325 3.39
                           380 3.40 331 3.42 348 3.42 356 3.44 333 3.45 323 3.49
 428  0.584  0.373  0.502- 221 1.89 158 1.94  82 1.95 270 1.99  88 2.02 244 2.06 375 3.40 334 3.41
                           324 3.43 370 3.43 333 3.43 347 3.46 355 3.47 323 3.47
 429  0.918  0.374  0.506- 153 1.84 243 1.85  74 1.94 275 2.04  67 2.09  84 2.10 337 3.39 317 3.41
                           349 3.41 335 3.43 363 3.52 361 3.54 359 3.59 381 4.00
 430  0.918  0.125  0.507- 182 1.84 242 1.85  72 1.97 276 2.01  66 2.11  85 2.12 335 3.38 338 3.40
                           332 3.41 337 3.41 385 3.57 358 3.59 383 3.93 315 3.93
 431  0.584  0.876  0.506- 241 1.84 220 1.92 297 1.97 271 1.99  86 2.06  73 2.10 331 3.37 325 3.38
                           322 3.39 329 3.39 350 3.55 357 3.56 379 3.60 384 3.67
 432  0.752  0.625  0.502- 273 1.89 228 1.96 186 1.97  53 1.97 150 1.99  90 2.06 380 3.41 349 3.42
[...]
  273            m_sumb_d                              0.452949                       42   5
  274          m_sumb_d                              0.000547                          7   4
  275        setdij_                               5.388263                          140   3
  276          m_sumb_d                              1.406113                        140   4
  277        set_dd_magatom                        0.000026                            7   3
  278        set_dd_paw                            0.104141                            7   3
  279          set_rsgf_all                          0.000011                          7   4
  280          m_sumb_d                              0.102525                         49   4
  281        strkin                                0.039078                            7   3
  282          m_sumb_d                              0.002165                          7   4
  283        strelo                                0.039922                            7   3
  284          m_sumb_d                              0.003541                         14   4
  285        strnlr                               48.254684                            7   3
  286          rspher_all                            2.238025                         63   4
  287          phaser                                0.000031                         63   4
  288          rpro_isp                             45.588176                         63   4
  289            fftwav_mpi                           34.440219                     8820   5
  290              fft3d_mpi                            30.783008                   8820   6
  291                fftbrc_mpi                           26.288025                 8820   7
  292                  fftbas_plan_mpi                      26.260748               8820   8
  293                    dfftw_execute                        13.371746            26460   9
  294                    map_forward                           7.539402            17640   9
  295                      map_gather                            0.775377           8820  10
  296                      m_alltoallv_z                         2.703722           8820  10
  297                      map_scatter                           1.618322           8820  10
  298            rpromu                               11.072279                     2205   5
  299              rpromu_gemm                           3.501238                 500535   6
  300              m_sumb_d                              1.142294                   8820   6
  301          m_sumb_d                              0.280534                          7   4
  302        m_sumb_d                              0.029514                           49   3
  303        fft3d_mpi                             4.388452                          497   3
  304          fftbrc_mpi                            4.265102                        497   4
  305            fftbas_plan_mpi                       4.263559                      497   5
  306              dfftw_execute                         0.615008                   1491   6
  307              map_forward                           1.492183                    490   6
  308                map_gather                            0.031130                  245   7
  309                m_alltoallv_z                         1.308442                  245   7
  310                map_scatter                           0.148019                  245   7
  311              map_backward                          1.801067                    504   6
  312                map_gather                            0.122153                  252   7
  313                m_alltoallv_z                         1.603686                  252   7
  314                map_scatter                           0.070420                  252   7
  315        ggaall_grid                           1.343791                            7   3
  316        forhar                                2.875545                            7   3
  317          m_sumb_d                              0.058773                          7   4
  318        strehar                               0.042432                            7   3
  319          m_sumb_d                              0.003056                          7   4
  320        m_bcast_d                             0.005550                           14   3
  321      potlok                               69.842563                             13   2
  322        fft3d_mpi                            24.785945                         2741   3
  323          fftbrc_mpi                           24.099108                       2741   4
  324            fftbas_plan_mpi                      24.089774                     2741   5
  325              dfftw_execute                         3.467562                   8223   6
  326              map_forward                           9.152660                   2754   6
  327                map_gather                            0.182686                 1390   7
  328                m_alltoallv_z                         8.102995                 1390   7
  329                map_scatter                           0.840819                 1390   7
  330              map_backward                          9.517265                   2728   6
  331                map_gather                            0.682776                 1364   7
  332                m_alltoallv_z                         8.423482                 1364   7
  333                map_scatter                           0.385046                 1364   7
  334        ggaall_grid                          19.145869                          237   3
  335        m_sumb_d                              0.329562                         1224   3
  336        fewald                                0.018722                           26   3
  337          rsp                                   0.016931                         26   4
  338          rcp                                   0.001586                         26   4
  339        pothar                                0.020574                           13   3
  340          m_sumb_d                              0.013973                         13   4
  341        m_bcast_d                             0.045077                           13   3
  342      potlok_metagga                        0.000019                             13   2
  343      set_dd_magatom                        0.000008                              7   2
  344      set_dd_paw                            0.159265                             13   2
  345        set_rsgf_all                          0.000108                           13   3
  346        m_sumb_d                              0.155750                           91   3
  347      m_sumb_d                             52.974523                           3518   2
  348      wavpre_noio                           1.652934                              6   2
  349        stufak                                1.571667                            6   3
  350      eddiag                              133.753806                              6   2
  351        overl                                 0.008082                            6   3
  352        redis_proj                            0.734327                           18   3
  353          m_alltoall_d                          0.726897                       2520   4
  354        fftwav_mpi                            3.298854                          840   3
  355          fft3d_mpi                             2.950243                        840   4
  356            fftbrc_mpi                            2.504556                      840   5
  357              fftbas_plan_mpi                       2.501928                    840   6
  358                dfftw_execute                         1.274097                 2520   7
  359                map_forward                           0.728158                 1680   7
  360                  map_gather                            0.076693                840   8
  361                  m_alltoallv_z                         0.262540                840   8
  362                  map_scatter                           0.152463                840   8
  363        hamilt_local                          2.984929                          840   3
  364          vhamil                                0.392124                        840   4
  365          kinhamil                              2.586071                        840   4
  366            fftext_mpi                            2.557070                      840   5
  367              fft3d_mpi                             2.500124                    840   6
  368                fftbrc_mpi                            2.102835                  840   7
  369                  fftbas_plan_mpi                       2.099804                840   8
  370                    dfftw_execute                         1.108194             2520   9
  371                    map_backward                          0.504086             1680   9
  372                      map_gather                            0.134247            840  10
  373                      m_alltoallv_z                         0.241247            840  10
  374                      map_scatter                           0.115080            840  10
  375        redis_pw                              1.678105                          846   3
  376          m_alltoall_d                          1.616268                       2520   4
  377        orth1                                 1.729106                          420   3
  378        m_sumb_d                              1.286342                            6   3
  379        shift_bands_between_low_high          0.000008                            6   3
  380        lincom                                1.815769                            6   3
 
 Flat profile
 ============
 
             routine name                   CPU           calls
 ---------------------------------------------------------------
 edwav                                3247.487367         304
 potlok                                566.270149         317
 total_time                            487.253925           1
 m_alltoall_d                          288.152949      739340
 m_sumb_d                              267.872235      316297
 dfftw_execute                         263.629116      555684
 lincom                                239.498515         932
 eddiag                                229.890684         165
 m_alltoallv_z                         196.399552      185856
 orth1                                 150.748096       43960
 fftbas_plan_mpi                       116.928847      185228
 choleski                              107.903650         311
 fft3d_mpi                              85.890062      185228
 ggaall_grid                            78.579378         548
 fftwav_mpi                             46.639576      114787
 eccp                                   41.411262       85120
 map_scatter                            38.327393      185856
 map_forward                            32.417621      255332
 racc0                                  32.248462       21280
 rpro1                                  30.663680       21280
 map_gather                             24.911634      185856
 pw_charge                              16.238282       36387
 setdij_                                14.479916         500
 force_and_stress                       12.670511           7
 vhamil                                 10.879443       23100
 augmentation_charge                     9.968815         311
 rpromu                                  9.281618        3185
 m_bcast_z                               8.866847        2381
 w1_dscal                                6.959355       21280
 rpromu_gemm                             5.027353      722995
 redis_pw                                4.923563       87727
 rspher_all                              3.211776          92
 fftext_mpi                              3.179123       44380
 forloc                                  2.817490           7
 forhar                                  2.816771           7
 orthch                                  2.812333         311
 redis_proj                              2.209585       67244
 stufak                                  1.835700           7
 overl                                   1.354456       21908
 m_bcast_d                               1.170284         347
 elmin_all                               1.166826           7
 map_backward                            0.950510      115124
 kinhamil                                0.772352       23100
 soft_charge                             0.739523         311
 fftbrc_mpi                              0.598442      185228
 densta                                  0.587462         312
 rsp                                     0.483484         641
 depsum                                  0.351162         311
 hamilt_local                            0.185837       23100
 pothar                                  0.161842         317
 strnlr                                  0.147917           7
 rpro_isp                                0.143957          91
 set_dd_paw                              0.107868         324
 set_charge                              0.094203         311
 wavpre_noio                             0.081267           6
 fewald                                  0.062827         641
 fft_gq                                  0.053428         311
 fornlr                                  0.039924           7
 strehar                                 0.039376           7
 rcp                                     0.038447         641
 strkin                                  0.036913           7
 strelo                                  0.036381           7
 redis_pw_all                            0.002095         304
 fordep                                  0.001516           7
 redis_pw_over_bands                     0.001193         317
 set_rsgf_all                            0.000852         324
 brgrid                                  0.000747           1
 potlok_metagga                          0.000475         317
 crpa_reader                             0.000258           1
 phaser                                  0.000189         243
 proall                                  0.000083           7
 rotate_active_occupied_orbital          0.000062           7
 set_dd_magatom                          0.000034          14
 vectorpot                               0.000033           1
 shift_bands_between_low_high            0.000017          13
 ---------------------------------------------------------------
  summed up times    6700.71487617493     
 
 Accumulative profile
 ====================
 
             routine name                   CPU           calls
 ---------------------------------------------------------------
 total_time                           6698.655264           1
 elmin_all                            5826.687569           7
 edwav                                4623.340388         304
 potlok                                857.182939         317
 fft3d_mpi                             757.993564      185228
 fftbrc_mpi                            672.103503      185228
 fftbas_plan_mpi                       671.505061      185228
 fftwav_mpi                            454.144978      114787
 eddiag                                354.082113         165
 orthch                                353.255895         311
 m_alltoall_d                          288.152949      739340
 m_sumb_d                              267.872235      316297
 dfftw_execute                         263.629116      555684
 lincom                                239.498515         932
 m_alltoallv_z                         196.399552      185856
 map_forward                           183.903881      255332
 set_charge                            179.315386         311
 soft_charge                           164.740220         311
 redis_proj                            151.675828       67244
 orth1                                 150.748096       43960
 redis_pw                              143.610270       87727
 fftext_mpi                            134.797586       44380
 map_backward                          109.102829      115124
 choleski                              107.903650         311
 force_and_stress                       95.796509           7
 hamilt_local                           82.030965       23100
 ggaall_grid                            78.579378         548
 kinhamil                               70.965685       23100
 rpro_isp                               65.860524          91
 strnlr                                 48.254684           7
 eccp                                   46.575068       85120
 racc0                                  42.487483       21280
 map_scatter                            38.327393      185856
 rpro1                                  34.970440       21280
 map_gather                             24.911634      185856
 redis_pw_over_bands                    23.507652         317
 redis_pw_all                           23.506459         304
 setdij_                                19.468456         500
 pw_charge                              16.238282       36387
 fornlr                                 16.081850           7
 rpromu                                 15.964679        3185
 augmentation_charge                    13.921929         311
 vhamil                                 10.879443       23100
 m_bcast_z                               8.866847        2381
 w1_dscal                                6.959355       21280
 proall                                  5.090222           7
 rpromu_gemm                             5.027353      722995
 densta                                  4.513201         312
 set_dd_paw                              4.072168         324
 rspher_all                              3.211776          92
 forloc                                  2.894335           7
 forhar                                  2.875545           7
 stufak                                  1.835700           7
 wavpre_noio                             1.652934           6
 fordep                                  1.638414           7
 fft_gq                                  1.632573         311
 overl                                   1.354456       21908
 m_bcast_d                               1.170284         347
 fewald                                  0.823217         641
 pothar                                  0.683588         317
 depsum                                  0.559033         311
 rsp                                     0.483484         641
 strehar                                 0.042432           7
 strelo                                  0.039922           7
 strkin                                  0.039078           7
 rcp                                     0.038447         641
 set_rsgf_all                            0.000852         324
 brgrid                                  0.000747           1
 potlok_metagga                          0.000475         317
 crpa_reader                             0.000258           1
 phaser                                  0.000189         243
 rotate_active_occupied_orbital          0.000062           7
 set_dd_magatom                          0.000034          14
 vectorpot                               0.000033           1
 shift_bands_between_low_high            0.000017          13
 ---------------------------------------------------------------
 
Profiling took   4.800513  1.640579  0.006977  0.006337 seconds
Profiling took   5.541476 seconds
