 vasp.6.3.2 27Jun22 (build Jan 03 2024 23:25:20) gamma-only                     
  
 executed on           IFC15_impi date 2024.02.01  16:56:01
 running   64 mpi-ranks, with    1 threads/rank
 distrk:  each k-point on   64 cores,    1 groups
 distr:  one band on NCORE=   4 cores,   16 groups


--------------------------------------------------------------------------------------------------------


 INCAR:
   ENCUT = 500.000000
   SIGMA = 0.010000
   EDIFF = 1.00e-05
   ALGO = A
   ISMEAR = 0
   NELM = 200
   NSW = 500
   NCORE = 4
   LCHARG = .TRUE.
   LWAVE = .TRUE.
   LREAL = Auto
   IBRION = 2
   EDIFFG = -0.05
   GGA = BF
   LUSE_VDW = .TRUE.
   ZAB_VDW = -1.8867
   LBEEFENS = .TRUE.

 POTCAR:    PAW_PBE C 08Apr2002                   
 POTCAR:    PAW_PBE H 15Jun2001                   
 -----------------------------------------------------------------------------
|                                                                             |
|               ----> ADVICE to this user running VASP <----                  |
|                                                                             |
|     You have switched on vdW-DFT.                                           |
|     This routine was written and supplied by Jiri Klimes. We recommend      |
|     that you carefully read and cite the following publications:            |
|       J. Klimes, D.R. Bowler, A. Michelides                                 |
|          J. Phys.: Cond Matt. 22 022201 (2010)                              |
|       J. Klimes, D.R. Bowler, A. Michelides                                 |
|          Phys. Rev. B. 83, 195131 (2011)                                    |
|     and references therein.                                                 |
|                                                                             |
 -----------------------------------------------------------------------------

 POTCAR:    PAW_PBE C 08Apr2002                   
   SHA256 =  253f7b50bb8d59471dbedb8285d89021f4a42ed1a2c5d38a03a736e69125dd95 C/POTCAR              
   COPYR  = (c) Copyright 08Apr2002 Georg Kresse                                                    
   COPYR  = This file is part of the software VASP. Any use, copying, and all other rights are regul
   COPYR  = If you do not have a valid VASP license, you may not use, copy or distribute this file. 
   VRHFIN =C: s2p2                                                                                  
   LEXCH  = PE                                                                                      
   EATOM  =   147.1560 eV,   10.8157 Ry                                                             
                                                                                                    
   TITEL  = PAW_PBE C 08Apr2002                                                                     
   LULTRA =        F    use ultrasoft PP ?                                                          
   IUNSCR =        1    unscreen: 0-lin 1-nonlin 2-no                                               
   RPACOR =    1.200    partial core radius                                                         
   POMASS =   12.011; ZVAL   =    4.000    mass and valenz                                          
   RCORE  =    1.500    outmost cutoff radius                                                       
   RWIGS  =    1.630; RWIGS  =    0.863    wigner-seitz radius (au A)                               
   ENMAX  =  400.000; ENMIN  =  300.000 eV                                                          
   ICORE  =        2    local potential                                                             
   LCOR   =        T    correct aug charges                                                         
   LPAW   =        T    paw PP                                                                      
   EAUG   =  644.873                                                                                
   DEXC   =    0.000                                                                                
   RMAX   =    1.529    core radius for proj-oper                                                   
   RAUG   =    1.300    factor for augmentation sphere                                              
   RDEP   =    1.501    radius for radial grids                                                     
   RDEPT  =    1.300    core radius for aug-charge                                                  
                                                                                                    
   Atomic configuration                                                                             
    4 entries                                                                                       
     n  l   j            E        occ.                                                              
     1  0  0.50      -273.3789   2.0000                                                             
     2  0  0.50       -13.7508   2.0000                                                             
     2  1  0.50        -5.2854   2.0000                                                             
     3  2  1.50        -5.4423   0.0000                                                             
   Description                                                                                      
     l       E           TYP  RCUT    TYP  RCUT                                                     
     0    -13.7508458     23  1.200                                                                 
     0     -8.2022199     23  1.200                                                                 
     1     -5.2854383     23  1.500                                                                 
     1     34.0145650     23  1.500                                                                 
     2     -5.4423304      7  1.500                                                                 
  local pseudopotential read in
  partial core-charges read in
  partial kinetic energy density read in
  atomic valenz-charges read in
  non local Contribution for L=           0  read in
    real space projection operators read in
  non local Contribution for L=           0  read in
    real space projection operators read in
  non local Contribution for L=           1  read in
    real space projection operators read in
  non local Contribution for L=           1  read in
    real space projection operators read in
    PAW grid and wavefunctions read in
 
   number of l-projection  operators is LMAX  =           4
   number of lm-projection operators is LMMAX =           8
 
 POTCAR:    PAW_PBE H 15Jun2001                   
   SHA256 =  030f79b5d3ab3cf0e668861823c8fb652ff669f3e15e46930bd03bfd63a607b6 H/POTCAR              
   COPYR  = (c) Copyright 15Jun2001 Georg Kresse                                                    
   COPYR  = This file is part of the software VASP. Any use, copying, and all other rights are regul
   COPYR  = If you do not have a valid VASP license, you may not use, copy or distribute this file. 
   VRHFIN =H: ultrasoft test                                                                        
   LEXCH  = PE                                                                                      
   EATOM  =    12.4884 eV,    0.9179 Ry                                                             
                                                                                                    
   TITEL  = PAW_PBE H 15Jun2001                                                                     
   LULTRA =        F    use ultrasoft PP ?                                                          
   IUNSCR =        0    unscreen: 0-lin 1-nonlin 2-no                                               
   RPACOR =    0.000    partial core radius                                                         
   POMASS =    1.000; ZVAL   =    1.000    mass and valenz                                          
   RCORE  =    1.100    outmost cutoff radius                                                       
   RWIGS  =    0.700; RWIGS  =    0.370    wigner-seitz radius (au A)                               
   ENMAX  =  250.000; ENMIN  =  200.000 eV                                                          
   RCLOC  =    0.701    cutoff for local pot                                                        
   LCOR   =        T    correct aug charges                                                         
   LPAW   =        T    paw PP                                                                      
   EAUG   =  400.000                                                                                
   RMAX   =    1.123    core radius for proj-oper                                                   
   RAUG   =    1.200    factor for augmentation sphere                                              
   RDEP   =    1.112    radius for radial grids                                                     
   RDEPT  =    0.926    core radius for aug-charge                                                  
                                                                                                    
   Atomic configuration                                                                             
    2 entries                                                                                       
     n  l   j            E        occ.                                                              
     1  0  0.50        -6.4927   1.0000                                                             
     2  1  0.50        -3.4015   0.0000                                                             
   Description                                                                                      
     l       E           TYP  RCUT    TYP  RCUT                                                     
     0     -6.4927494     23  1.100                                                                 
     0      6.8029130     23  1.100                                                                 
     1     -4.0817478     23  1.100                                                                 
  local pseudopotential read in
  atomic valenz-charges read in
  non local Contribution for L=           0  read in
    real space projection operators read in
  non local Contribution for L=           0  read in
    real space projection operators read in
  non local Contribution for L=           1  read in
    real space projection operators read in
    PAW grid and wavefunctions read in
 
   number of l-projection  operators is LMAX  =           3
   number of lm-projection operators is LMMAX =           5
 
 -----------------------------------------------------------------------------
|                                                                             |
|               ----> ADVICE to this user running VASP <----                  |
|                                                                             |
|     You have a (more or less) 'small supercell' and for smaller cells       |
|     it is recommended to use the reciprocal-space projection scheme!        |
|     The real-space optimization is not efficient for small cells and it     |
|     is also less accurate ...                                               |
|     Therefore, set LREAL=.FALSE. in the INCAR file.                         |
|                                                                             |
 -----------------------------------------------------------------------------

 Optimization of the real space projectors (new method)

 maximal supplied QI-value         = 25.13
 optimisation between [QCUT,QGAM] = [ 11.31, 22.87] = [ 35.82,146.48] Ry 
 Optimized for a Real-space Cutoff    1.00 Angstroem

   l    n(q)    QCUT    max X(q) W(low)/X(q) W(high)/X(q)  e(spline) 
   0      7    11.310   115.676    0.43E-03    0.13E-02    0.19E-06
   0      7    11.310    87.132    0.43E-03    0.13E-02    0.18E-06
   1      6    11.310     4.429    0.42E-03    0.74E-03    0.11E-06
   1      6    11.310     2.733    0.34E-03    0.55E-03    0.92E-07
 Optimization of the real space projectors (new method)

 maximal supplied QI-value         = 34.20
 optimisation between [QCUT,QGAM] = [ 11.29, 22.57] = [ 35.68,142.71] Ry 
 Optimized for a Real-space Cutoff    1.16 Angstroem

   l    n(q)    QCUT    max X(q) W(low)/X(q) W(high)/X(q)  e(spline) 
   0      8    11.287    19.460    0.40E-03    0.73E-03    0.16E-06
   0      8    11.287    12.209    0.38E-03    0.70E-03    0.15E-06
   1      7    11.287     4.655    0.22E-03    0.25E-04    0.22E-06
 -----------------------------------------------------------------------------
|                                                                             |
|               ----> ADVICE to this user running VASP <----                  |
|                                                                             |
|     You enforced a specific xc type in the INCAR file but a different       |
|     type was found in the POTCAR file.                                      |
|     I HOPE YOU KNOW WHAT YOU ARE DOING!                                     |
|                                                                             |
 -----------------------------------------------------------------------------

  PAW_PBE C 08Apr2002                   :
 energy of atom  1       EATOM= -147.1560
 kinetic energy error for atom=    0.0076 (will be added to EATOM!!)
  PAW_PBE H 15Jun2001                   :
 energy of atom  2       EATOM=  -12.4884
 kinetic energy error for atom=    0.0020 (will be added to EATOM!!)
 
 
 POSCAR:  C  H
  positions in cartesian coordinates
  No initial velocities read in
 exchange correlation table for  LEXCH =       17
   RHO(1)=    0.500       N(1)  =     2000
   RHO(2)=  100.500       N(2)  =     4000

 VTST: version 4.1, (05/19/21)

 CHAIN: initializing optimizer
 
 OPT: Using VASP Conjugate-Gradient optimizer
 CHAIN: Read ICHAIN            0
 
 POSCAR:  C  H
  positions in cartesian coordinates
  No initial velocities read in
 


--------------------------------------------------------------------------------------------------------


 ion  position               nearest neighbor table
   1  0.500  0.500  0.525-   3 1.09   4 1.09   5 1.09   2 1.52
   2  0.500  0.500  0.475-   6 1.09   7 1.09   8 1.09   1 1.52
   3  0.500  0.546  0.539-   1 1.09
   4  0.463  0.477  0.539-   1 1.09
   5  0.537  0.477  0.539-   1 1.09
   6  0.500  0.454  0.461-   2 1.09
   7  0.463  0.523  0.461-   2 1.09
   8  0.537  0.523  0.461-   2 1.09
 
  LATTYP: Found a simple orthorhombic cell.
 ALAT       =    22.3170261383
 B/A-ratio  =     1.0606601451
 C/A-ratio  =     1.3442651281
  
  Lattice vectors:
  
 A1 = (   0.0000000000, -22.3170261383,   0.0000000000)
 A2 = (  23.6707801819,   0.0000000000,   0.0000000000)
 A3 = (   0.0000000000,   0.0000000000,  30.0000000000)


Analysis of symmetry for initial positions (statically):
=====================================================================
 Subroutine PRICEL returns:
 Original cell was already a primitive cell.
 

 Routine SETGRP: Setting up the symmetry group for a 
 simple orthorhombic supercell.


 Subroutine GETGRP returns: Found  4 space group operations
 (whereof  4 operations were pure point group operations)
 out of a pool of  8 trial point group operations.


The static configuration has the point symmetry C_2h.


Analysis of symmetry for dynamics (positions and initial velocities):
=====================================================================
 Subroutine PRICEL returns:
 Original cell was already a primitive cell.
 

 Routine SETGRP: Setting up the symmetry group for a 
 simple orthorhombic supercell.


 Subroutine GETGRP returns: Found  4 space group operations
 (whereof  4 operations were pure point group operations)
 out of a pool of  8 trial point group operations.


The dynamic configuration has the point symmetry C_2h.


 Subroutine INISYM returns: Found  4 space group operations
 (whereof  4 operations are pure point group operations),
 and found     1 'primitive' translations


----------------------------------------------------------------------------------------

                                     Primitive cell                                     

  volume of cell :   15847.8426

  direct lattice vectors                    reciprocal lattice vectors
    23.670780182  0.000000000  0.000000000     0.042246178  0.000000000  0.000000000
     0.000000000 22.317026138  0.000000000     0.000000000  0.044808838  0.000000000
     0.000000000  0.000000000 30.000000000     0.000000000  0.000000000  0.033333333

  length of vectors
    23.670780182 22.317026138 30.000000000     0.042246178  0.044808838  0.033333333

  position of ions in fractional coordinates (direct lattice)
     0.500000000  0.500000000  0.525406967
     0.500000000  0.500000000  0.474593033
     0.500000000  0.545658279  0.538574300
     0.462720156  0.477170838  0.538574300
     0.537279844  0.477170838  0.538574300
     0.500000000  0.454341721  0.461425700
     0.462720156  0.522829162  0.461425700
     0.537279844  0.522829162  0.461425700

  ion indices of the primitive-cell ions
   primitive index   ion index
                 1           1
                 2           2
                 3           3
                 4           4
                 5           5
                 6           6
                 7           7
                 8           8

----------------------------------------------------------------------------------------

 
 
 KPOINTS: KPOINTS created by Atomic Simulation Env

Automatic generation of k-mesh.
 Grid dimensions read from file:
 generate k-points for:    1    1    1

 Generating k-lattice:

  Cartesian coordinates                     Fractional coordinates (reciprocal lattice)
     0.042246178  0.000000000  0.000000000     1.000000000  0.000000000  0.000000000
     0.000000000  0.044808838  0.000000000     0.000000000  1.000000000  0.000000000
     0.000000000  0.000000000  0.033333333     0.000000000  0.000000000  1.000000000

  Length of vectors
     0.042246178  0.044808838  0.033333333

  Shift w.r.t. Gamma in fractional coordinates (k-lattice)
     0.000000000  0.000000000  0.000000000

 
 Subroutine IBZKPT returns following result:
 ===========================================
 
 Found      1 irreducible k-points:
 
 Following reciprocal coordinates:
            Coordinates               Weight
  0.000000  0.000000  0.000000      1.000000
 
 Following cartesian coordinates:
            Coordinates               Weight
  0.000000  0.000000  0.000000      1.000000
 


--------------------------------------------------------------------------------------------------------




 Dimension of arrays:
   k-points           NKPTS =      1   k-points in BZ     NKDIM =      1   number of bands    NBANDS=     16
   number of dos      NEDOS =    301   number of ions     NIONS =      8
   non local maximal  LDIM  =      4   non local SUM 2l+1 LMDIM =      8
   total plane-waves  NPLWV = ******
   max r-space proj   IRMAX =   1285   max aug-charges    IRDMAX=   2406
   dimension x,y,z NGX =   140 NGY =  126 NGZ =  168
   dimension x,y,z NGXF=   280 NGYF=  252 NGZF=  336
   support grid    NGXF=   280 NGYF=  252 NGZF=  336
   ions per type =               2   6
   NGX,Y,Z   is equivalent  to a cutoff of   9.83,  9.39,  9.31 a.u.
   NGXF,Y,Z  is equivalent  to a cutoff of  19.67, 18.77, 18.62 a.u.

 SYSTEM =  unknown system                          
 POSCAR =   C  H                                   

 Startparameter for this run:
   NWRITE =      2    write-flag & timer
   PREC   = normal    normal or accurate (medium, high low for compatibility)
   ISTART =      0    job   : 0-new  1-cont  2-samecut
   ICHARG =      2    charge: 1-file 2-atom 10-const
   ISPIN  =      1    spin polarized calculation?
   LNONCOLLINEAR =      F non collinear calculations
   LSORBIT =      F    spin-orbit coupling
   INIWAV =      1    electr: 0-lowe 1-rand  2-diag
   LASPH  =      F    aspherical Exc in radial PAW
 Electronic Relaxation 1
   ENCUT  =  500.0 eV  36.75 Ry    6.06 a.u.  43.16 40.69 54.70*2*pi/ulx,y,z
   ENINI  =  500.0     initial cutoff
   ENAUG  =  644.9 eV  augmentation charge cutoff
   NELM   =    200;   NELMIN=  2; NELMDL= -5     # of ELM steps 
   EDIFF  = 0.1E-04   stopping-criterion for ELM
   LREAL  =      T    real-space projection
   NLSPLINE    = F    spline interpolate recip. space projectors
   LCOMPAT=      F    compatible to vasp.4.4
   GGA_COMPAT  = T    GGA compatible to vasp.4.4-vasp.4.6
   LMAXPAW     = -100 max onsite density
   LMAXMIX     =    2 max onsite mixed and CHGCAR
   VOSKOWN=      0    Vosko Wilk Nusair interpolation
   ROPT   =   -0.00050  -0.00050
 Ionic relaxation
   EDIFFG = -.5E-01   stopping-criterion for IOM
   NSW    =    500    number of steps for IOM
   NBLOCK =      1;   KBLOCK =    500    inner block; outer block 
   IBRION =      2    ionic relax: 0-MD 1-quasi-New 2-CG
   NFREE  =      1    steps in history (QN), initial steepest desc. (CG)
   ISIF   =      2    stress and relaxation
   IWAVPR =     11    prediction:  0-non 1-charg 2-wave 3-comb
   ISYM   =      2    0-nonsym 1-usesym 2-fastsym
   LCORR  =      T    Harris-Foulkes like correction to forces

   POTIM  = 0.5000    time-step for ionic-motion
   TEIN   =    0.0    initial temperature
   TEBEG  =    0.0;   TEEND  =   0.0 temperature during run
   SMASS  =  -3.00    Nose mass-parameter (am)
   estimated Nose-frequenzy (Omega)   =  0.10E-29 period in steps = 0.13E+47 mass=  -0.128E-25a.u.
   SCALEE = 1.0000    scale energy and forces
   NPACO  =    256;   APACO  = 10.0  distance and # of slots for P.C.
   PSTRESS=    0.0 pullay stress

  Mass of Ions in am
   POMASS =  12.01  1.00
  Ionic Valenz
   ZVAL   =   4.00  1.00
  Atomic Wigner-Seitz radii
   RWIGS  =  -1.00 -1.00
  virtual crystal weights 
   VCA    =   1.00  1.00
   NELECT =      14.0000    total number of electrons
   NUPDOWN=      -1.0000    fix difference up-down

 DOS related values:
   EMIN   =  10.00;   EMAX   =-10.00  energy-range for DOS
   EFERMI =   0.00
   ISMEAR =     0;   SIGMA  =   0.01  broadening in eV -4-tet -1-fermi 0-gaus

 Electronic relaxation 2 (details)
   IALGO  =     58    algorithm
   LDIAG  =      T    sub-space diagonalisation (order eigenvalues)
   LSUBROT=      F    optimize rotation matrix (better conditioning)
   TURBO    =      0    0=normal 1=particle mesh
   IRESTART =      0    0=no restart 2=restart with 2 vectors
   NREBOOT  =      0    no. of reboots
   NMIN     =      0    reboot dimension
   EREF     =   0.00    reference energy to select bands
   IMIX   =      4    mixing-type and parameters
     AMIX     =   0.40;   BMIX     =  1.00
     AMIX_MAG =   1.60;   BMIX_MAG =  1.00
     AMIN     =   0.10
     WC   =   100.;   INIMIX=   1;  MIXPRE=   1;  MAXMIX= -45

 Intra band minimization:
   WEIMIN = 0.0010     energy-eigenvalue tresh-hold
   EBREAK =  0.16E-06  absolut break condition
   DEPER  =   0.30     relativ break condition  

   TIME   =   0.40     timestep for ELM

  volume/ion in A,a.u.               =    1980.98     13368.31
  Fermi-wavevector in a.u.,A,eV,Ry     =   0.157082  0.296843  0.335722  0.024675
  Thomas-Fermi vector in A             =   0.845119
 
 Write flags
   LWAVE        =      T    write WAVECAR
   LDOWNSAMPLE  =      F    k-point downsampling of WAVECAR
   LCHARG       =      T    write CHGCAR
   LVTOT        =      F    write LOCPOT, total local potential
   LVHAR        =      F    write LOCPOT, Hartree potential only
   LELF         =      F    write electronic localiz. function (ELF)
   LORBIT       =      0    0 simple, 1 ext, 2 COOP (PROOUT), +10 PAW based schemes


 Dipole corrections
   LMONO  =      F    monopole corrections only (constant potential shift)
   LDIPOL =      F    correct potential (dipole corrections)
   IDIPOL =      0    1-x, 2-y, 3-z, 4-all directions 
   EPSILON=  1.0000000 bulk dielectric constant

 Exchange correlation treatment:
   GGA     =    BF    GGA type
   LEXCH   =    17    internal setting for exchange type
   LIBXC   =     F    Libxc                    
   VOSKOWN =     0    Vosko Wilk Nusair interpolation
   LHFCALC =     F    Hartree Fock is set to
   LHFONE  =     F    Hartree Fock one center treatment
   AEXX    =    0.0000 exact exchange contribution

 vdW DFT:
   LUSE_VDW   =     T    switch on vdW DFT
   Zab_VDW    =******    correlation parameter
   PARAM1     =0.1234
   PARAM2     =1.0000
   PARAM3     =0.0000
   -- rVV10 --
   BPARAM     = 6.3000
   CPARAM     = 0.0093

 Linear response parameters
   LEPSILON=     F    determine dielectric tensor
   LRPA    =     F    only Hartree local field effects (RPA)
   LNABLA  =     F    use nabla operator in PAW spheres
   LVEL    =     F    velocity operator in full k-point grid
   CSHIFT  =0.1000    complex shift for real part using Kramers Kronig
   OMEGAMAX=  -1.0    maximum frequency
   DEG_THRESHOLD= 0.2000000E-02 threshold for treating states as degnerate
   RTIME   =   -0.100 relaxation time in fs
  (WPLASMAI=    0.000 imaginary part of plasma frequency in eV, 0.658/RTIME)
   DFIELD  = 0.0000000 0.0000000 0.0000000 field for delta impulse in time
 
  Optional k-point grid parameters
   LKPOINTS_OPT  =     F    use optional k-point grid
   KPOINTS_OPT_MODE=     1    mode for optional k-point grid
 
 Orbital magnetization related:
   ORBITALMAG=     F  switch on orbital magnetization
   LCHIMAG   =     F  perturbation theory with respect to B field
   DQ        =  0.001000  dq finite difference perturbation B field
   LLRAUG    =     F  two centre corrections for induced B field



--------------------------------------------------------------------------------------------------------


 conjugate gradient relaxation of ions
 charge density and potential will be updated during run
 non-spin polarized calculation
 Conjugate gradient for all bands (Freysoldt, et al. PRB 79, 241103 (2009))
 preconditioned conjugated gradient                                        
 perform sub-space diagonalisation
    before iterative eigenvector-optimisation
 modified Broyden-mixing scheme, WC =      100.0
 initial mixing is a Kerker type mixing with AMIX =  0.4000 and BMIX =      1.0000
 Hartree-type preconditioning will be used
 using additional bands            9
 real space projection scheme for non local part
 use partial core corrections
 no Harris-corrections to forces 
 use gradient corrections 
 use of overlap-Matrix (Vanderbilt PP)
 Gauss-broadening in eV      SIGMA  =   0.01


--------------------------------------------------------------------------------------------------------


  energy-cutoff  :      500.00
  volume of cell :    15847.84
      direct lattice vectors                 reciprocal lattice vectors
    23.670780182  0.000000000  0.000000000     0.042246178  0.000000000  0.000000000
     0.000000000 22.317026138  0.000000000     0.000000000  0.044808838  0.000000000
     0.000000000  0.000000000 30.000000000     0.000000000  0.000000000  0.033333333

  length of vectors
    23.670780182 22.317026138 30.000000000     0.042246178  0.044808838  0.033333333


 
 k-points in units of 2pi/SCALE and weight: KPOINTS created by Atomic Simulation Env
   0.00000000  0.00000000  0.00000000       1.000
 
 k-points in reciprocal lattice and weights: KPOINTS created by Atomic Simulation Env
   0.00000000  0.00000000  0.00000000       1.000
 
 position of ions in fractional coordinates (direct lattice) 
   0.50000000  0.50000000  0.52540697
   0.50000000  0.50000000  0.47459303
   0.50000000  0.54565828  0.53857430
   0.46272016  0.47717084  0.53857430
   0.53727984  0.47717084  0.53857430
   0.50000000  0.45434172  0.46142570
   0.46272016  0.52282916  0.46142570
   0.53727984  0.52282916  0.46142570
 
 position of ions in cartesian coordinates  (Angst):
  11.83539009 11.15851307 15.76220900
  11.83539009 11.15851307 14.23779100
  11.83539009 12.17747007 16.15722900
  10.95294709 10.64903407 16.15722900
  12.71783309 10.64903407 16.15722900
  11.83539009 10.13955607 13.84277100
  10.95294709 11.66799207 13.84277100
  12.71783309 11.66799207 13.84277100
 


--------------------------------------------------------------------------------------------------------


 use parallel FFT for orbitals z direction half grid
 k-point   1 :   0.0000 0.0000 0.0000  plane waves:  201172

 maximum and minimum number of plane-waves per node :     50298    50286

 maximum number of plane-waves:    201172
 maximum index in each direction: 
   IXMAX=   43   IYMAX=   40   IZMAX=   54
   IXMIN=  -43   IYMIN=  -40   IZMIN=    0


 real space projection operators:
  total allocation   :        376.84 KBytes
  max/ min on nodes  :         95.47         92.16


 parallel 3D FFT for wavefunctions:
    minimum data exchange during FFTs selected (reduces bandwidth)
 parallel 3D FFT for charge:
    minimum data exchange during FFTs selected (reduces bandwidth)


 total amount of memory used by VASP MPI-rank0   115863. kBytes
=======================================================================

   base      :      30000. kBytes
   nonlr-proj:        113. kBytes
   fftplans  :      29821. kBytes
   grid      :      53514. kBytes
   one-center:          3. kBytes
   wavefun   :       2412. kBytes
 
     INWAV:  cpu time      0.0006: real time      0.0007
 Broyden mixing: mesh for mixing (old mesh)
   NGX = 87   NGY = 81   NGZ =109
  (NGX  =280   NGY  =252   NGZ  =336)
  gives a total of 768123 points

 initial charge density was supplied:
 charge density of overlapping atoms calculated
 number of electron      14.0000000 magnetization 
 keeping initial charge density in first step


--------------------------------------------------------------------------------------------------------


 Maximum index for non-local projection operator          301
 Maximum index for augmentation-charges          101 (set IRDMAX)


--------------------------------------------------------------------------------------------------------


 First call to EWALD:  gamma=   0.071
 Maximum number of real-space cells 3x 3x 2
 Maximum number of reciprocal cells 3x 2x 3

    FEWALD:  cpu time      0.0108: real time      0.0108


--------------------------------------- Iteration      1(   1)  ---------------------------------------


vdW kernel read from vdw_kernel.bindat
  0.0000  0.2424  0.5071  0.7962  1.1119  1.4567  1.8333  2.2446  2.6937  3.1842
  3.7199  4.3049  4.9438  5.6415  6.4036  7.2358  8.1446  9.1372 10.2212 11.4050
 12.6979 14.1099 15.6519 17.3360 19.1751 21.1837 23.3773 25.7729 28.3892 31.2465
 34.3669 37.7748 41.4965 45.5611 50.0000
 
    POTLOK:  cpu time     16.0290: real time     16.0396
    SETDIJ:  cpu time      0.0089: real time      0.0090
    TRIAL :  cpu time      0.4619: real time      0.4930
    CORREC:  cpu time      0.0004: real time      0.0004
    --------------------------------------------
      LOOP:  cpu time     16.5097: real time     16.5540

 eigenvalue-minimisations  :    48
 total energy-change (2. order) : 0.1303907E+03  (-0.1978622E+03)
 number of electron      14.0000000 magnetization 
 augmentation part       14.0000000 magnetization 

 Free energy of the ion-electron system (eV)
  ---------------------------------------------------
  alpha Z        PSCENC =         0.04919692
  Ewald energy   TEWEN  =       568.56322590
  -Hartree energ DENC   =      -786.16831082
  -exchange      EXHF   =         0.00000000
  -V(xc)+E(xc)   XCENC  =        40.23728812
  PAW double counting   =       228.66440288     -230.70057356
  entropy T*S    EENTRO =        -0.00000000
  eigenvalues    EBANDS =       -67.45462599
  atomic energy  EATOM  =       377.20013840
  ---------------------------------------------------
  free energy    TOTEN  =       130.39074185 eV

  energy without entropy =      130.39074185  energy(sigma->0) =      130.39074185


--------------------------------------------------------------------------------------------------------




--------------------------------------- Iteration      1(   2)  ---------------------------------------


    TRIAL :  cpu time      0.2796: real time      0.2814
    CORREC:  cpu time      0.0003: real time      0.0003
    --------------------------------------------
      LOOP:  cpu time      0.2843: real time      0.3013

 eigenvalue-minimisations  :    32
 total energy-change (2. order) :-0.1057308E+03  (-0.1057308E+03)
 number of electron      14.0000000 magnetization 
 augmentation part       14.0000000 magnetization 

 Free energy of the ion-electron system (eV)
  ---------------------------------------------------
  alpha Z        PSCENC =         0.04919692
  Ewald energy   TEWEN  =       568.56322590
  -Hartree energ DENC   =      -786.16831082
  -exchange      EXHF   =         0.00000000
  -V(xc)+E(xc)   XCENC  =        40.23728812
  PAW double counting   =       228.66440288     -230.70057356
  entropy T*S    EENTRO =        -0.00000000
  eigenvalues    EBANDS =      -173.18541268
  atomic energy  EATOM  =       377.20013840
  ---------------------------------------------------
  free energy    TOTEN  =        24.65995516 eV

  energy without entropy =       24.65995516  energy(sigma->0) =       24.65995516


--------------------------------------------------------------------------------------------------------




--------------------------------------- Iteration      1(   3)  ---------------------------------------


    TRIAL :  cpu time      0.2531: real time      0.2532
    CORREC:  cpu time      0.0003: real time      0.0003
    --------------------------------------------
      LOOP:  cpu time      0.2573: real time      0.2719

 eigenvalue-minimisations  :    32
 total energy-change (2. order) :-0.6008312E+02  (-0.6008312E+02)
 number of electron      14.0000000 magnetization 
 augmentation part       14.0000000 magnetization 

 Free energy of the ion-electron system (eV)
  ---------------------------------------------------
  alpha Z        PSCENC =         0.04919692
  Ewald energy   TEWEN  =       568.56322590
  -Hartree energ DENC   =      -786.16831082
  -exchange      EXHF   =         0.00000000
  -V(xc)+E(xc)   XCENC  =        40.23728812
  PAW double counting   =       228.66440288     -230.70057356
  entropy T*S    EENTRO =        -0.00000000
  eigenvalues    EBANDS =      -233.26853039
  atomic energy  EATOM  =       377.20013840
  ---------------------------------------------------
  free energy    TOTEN  =       -35.42316254 eV

  energy without entropy =      -35.42316254  energy(sigma->0) =      -35.42316254


--------------------------------------------------------------------------------------------------------




--------------------------------------- Iteration      1(   4)  ---------------------------------------


    TRIAL :  cpu time      0.2546: real time      0.2545
    CORREC:  cpu time      0.0003: real time      0.0003
    --------------------------------------------
      LOOP:  cpu time      0.2584: real time      0.2731

 eigenvalue-minimisations  :    32
 total energy-change (2. order) :-0.8522744E+01  (-0.8522744E+01)
 number of electron      14.0000000 magnetization 
 augmentation part       14.0000000 magnetization 

 Free energy of the ion-electron system (eV)
  ---------------------------------------------------
  alpha Z        PSCENC =         0.04919692
  Ewald energy   TEWEN  =       568.56322590
  -Hartree energ DENC   =      -786.16831082
  -exchange      EXHF   =         0.00000000
  -V(xc)+E(xc)   XCENC  =        40.23728812
  PAW double counting   =       228.66440288     -230.70057356
  entropy T*S    EENTRO =        -0.00000000
  eigenvalues    EBANDS =      -241.79127434
  atomic energy  EATOM  =       377.20013840
  ---------------------------------------------------
  free energy    TOTEN  =       -43.94590649 eV

  energy without entropy =      -43.94590649  energy(sigma->0) =      -43.94590649


--------------------------------------------------------------------------------------------------------




--------------------------------------- Iteration      1(   5)  ---------------------------------------


    TRIAL :  cpu time      0.4447: real time      0.4550
    CORREC:  cpu time      0.0004: real time      0.0004
    CHARGE:  cpu time      1.2837: real time      1.2845
    --------------------------------------------
      LOOP:  cpu time      1.7325: real time      1.7579

 eigenvalue-minimisations  :    64
 total energy-change (2. order) :-0.2796189E+00  (-0.2796189E+00)
 number of electron      13.9999988 magnetization 
 augmentation part        0.3959885 magnetization 

 Free energy of the ion-electron system (eV)
  ---------------------------------------------------
  alpha Z        PSCENC =         0.04919692
  Ewald energy   TEWEN  =       568.56322590
  -Hartree energ DENC   =      -786.16831082
  -exchange      EXHF   =         0.00000000
  -V(xc)+E(xc)   XCENC  =        40.23728812
  PAW double counting   =       228.66440288     -230.70057356
  entropy T*S    EENTRO =        -0.00000000
  eigenvalues    EBANDS =      -242.07089320
  atomic energy  EATOM  =       377.20013840
  ---------------------------------------------------
  free energy    TOTEN  =       -44.22552536 eV

  energy without entropy =      -44.22552536  energy(sigma->0) =      -44.22552536


--------------------------------------------------------------------------------------------------------




--------------------------------------- Iteration      1(   6)  ---------------------------------------


    POTLOK:  cpu time     14.3118: real time     14.3173
    SETDIJ:  cpu time      0.0081: real time      0.0081
    TRIAL :  cpu time      0.1720: real time      0.1736
    CORREC:  cpu time     16.4408: real time     16.4489
    CHARGE:  cpu time      1.2469: real time      1.2479
    --------------------------------------------
      LOOP:  cpu time     32.1825: real time     32.2129

 eigenvalue-minimisations  :     0
 total energy-change (2. order) : 0.1093625E+02  (-0.4529299E+01)
 number of electron      13.9999988 magnetization 
 augmentation part        0.3478403 magnetization 

 Free energy of the ion-electron system (eV)
  ---------------------------------------------------
  alpha Z        PSCENC =         0.04919692
  Ewald energy   TEWEN  =       568.56322590
  -Hartree energ DENC   =      -932.72818089
  -exchange      EXHF   =         0.00000000
  -V(xc)+E(xc)   XCENC  =        48.04607674
  PAW double counting   =       968.84689627     -971.00363385
  entropy T*S    EENTRO =        -0.00000000
  eigenvalues    EBANDS =       -92.26299658
  atomic energy  EATOM  =       377.20013840
  ---------------------------------------------------
  free energy    TOTEN  =       -33.28927709 eV

  energy without entropy =      -33.28927709  energy(sigma->0) =      -33.28927709


--------------------------------------------------------------------------------------------------------




--------------------------------------- Iteration      1(   7)  ---------------------------------------


    POTLOK:  cpu time     15.1004: real time     15.1075
    SETDIJ:  cpu time      0.0079: real time      0.0079
    TRIAL :  cpu time      0.1511: real time      0.1511
    CORREC:  cpu time     16.2554: real time     16.2616
    CHARGE:  cpu time      1.2493: real time      1.2505
    --------------------------------------------
      LOOP:  cpu time     32.7672: real time     32.7972

 eigenvalue-minimisations  :     0
 total energy-change (2. order) :-0.4568299E+01  (-0.4566015E+00)
 number of electron      13.9999987 magnetization 
 augmentation part        0.3326395 magnetization 

 Free energy of the ion-electron system (eV)
  ---------------------------------------------------
  alpha Z        PSCENC =         0.04919692
  Ewald energy   TEWEN  =       568.56322590
  -Hartree energ DENC   =      -870.01478919
  -exchange      EXHF   =         0.00000000
  -V(xc)+E(xc)   XCENC  =        45.03085949
  PAW double counting   =       925.63418079     -927.74210031
  entropy T*S    EENTRO =        -0.00000000
  eigenvalues    EBANDS =      -156.57828807
  atomic energy  EATOM  =       377.20013840
  ---------------------------------------------------
  free energy    TOTEN  =       -37.85757607 eV

  energy without entropy =      -37.85757607  energy(sigma->0) =      -37.85757607


--------------------------------------------------------------------------------------------------------




--------------------------------------- Iteration      1(   8)  ---------------------------------------


    POTLOK:  cpu time     15.0921: real time     15.0976
    SETDIJ:  cpu time      0.0080: real time      0.0080
    TRIAL :  cpu time      0.1508: real time      0.1515
    CORREC:  cpu time     16.4759: real time     16.4830
    CHARGE:  cpu time      1.2500: real time      1.2504
    --------------------------------------------
      LOOP:  cpu time     32.9793: real time     33.0083

 eigenvalue-minimisations  :     0
 total energy-change (2. order) :-0.4604452E+00  (-0.2408704E+00)
 number of electron      13.9999987 magnetization 
 augmentation part        0.3292284 magnetization 

 Free energy of the ion-electron system (eV)
  ---------------------------------------------------
  alpha Z        PSCENC =         0.04919692
  Ewald energy   TEWEN  =       568.56322590
  -Hartree energ DENC   =      -867.87901984
  -exchange      EXHF   =         0.00000000
  -V(xc)+E(xc)   XCENC  =        45.02870177
  PAW double counting   =       950.26895282     -952.36784225
  entropy T*S    EENTRO =        -0.00000000
  eigenvalues    EBANDS =      -159.18137501
  atomic energy  EATOM  =       377.20013840
  ---------------------------------------------------
  free energy    TOTEN  =       -38.31802129 eV

  energy without entropy =      -38.31802129  energy(sigma->0) =      -38.31802129


--------------------------------------------------------------------------------------------------------




--------------------------------------- Iteration      1(   9)  ---------------------------------------


    POTLOK:  cpu time     15.2090: real time     15.2152
    SETDIJ:  cpu time      0.0081: real time      0.0081
    TRIAL :  cpu time      0.1515: real time      0.1514
    CORREC:  cpu time     16.4239: real time     16.4311
    CHARGE:  cpu time      1.2473: real time      1.2476
    --------------------------------------------
      LOOP:  cpu time     33.0421: real time     33.0710

 eigenvalue-minimisations  :     0
 total energy-change (2. order) :-0.2324800E+00  (-0.8027421E-01)
 number of electron      13.9999987 magnetization 
 augmentation part        0.3307971 magnetization 

 Free energy of the ion-electron system (eV)
  ---------------------------------------------------
  alpha Z        PSCENC =         0.04919692
  Ewald energy   TEWEN  =       568.56322590
  -Hartree energ DENC   =      -862.43026776
  -exchange      EXHF   =         0.00000000
  -V(xc)+E(xc)   XCENC  =        44.81357505
  PAW double counting   =       957.60813478     -959.70110153
  entropy T*S    EENTRO =        -0.00000000
  eigenvalues    EBANDS =      -164.65340304
  atomic energy  EATOM  =       377.20013840
  ---------------------------------------------------
  free energy    TOTEN  =       -38.55050127 eV

  energy without entropy =      -38.55050127  energy(sigma->0) =      -38.55050127


--------------------------------------------------------------------------------------------------------




--------------------------------------- Iteration      1(  10)  ---------------------------------------


    POTLOK:  cpu time     14.8125: real time     14.8188
    SETDIJ:  cpu time      0.0081: real time      0.0081
    TRIAL :  cpu time      0.1514: real time      0.1514
    CORREC:  cpu time     15.5928: real time     15.5981
    CHARGE:  cpu time      1.2556: real time      1.2560
    --------------------------------------------
      LOOP:  cpu time     31.8226: real time     31.8499

 eigenvalue-minimisations  :     0
 total energy-change (2. order) :-0.7918117E-01  (-0.2343745E-01)
 number of electron      13.9999987 magnetization 
 augmentation part        0.3317009 magnetization 

 Free energy of the ion-electron system (eV)
  ---------------------------------------------------
  alpha Z        PSCENC =         0.04919692
  Ewald energy   TEWEN  =       568.56322590
  -Hartree energ DENC   =      -862.71735602
  -exchange      EXHF   =         0.00000000
  -V(xc)+E(xc)   XCENC  =        44.82111476
  PAW double counting   =       953.54376109     -955.63635423
  entropy T*S    EENTRO =        -0.00000000
  eigenvalues    EBANDS =      -164.45340927
  atomic energy  EATOM  =       377.20013840
  ---------------------------------------------------
  free energy    TOTEN  =       -38.62968245 eV

  energy without entropy =      -38.62968245  energy(sigma->0) =      -38.62968245


--------------------------------------------------------------------------------------------------------




--------------------------------------- Iteration      1(  11)  ---------------------------------------


    POTLOK:  cpu time     14.5867: real time     14.5928
    SETDIJ:  cpu time      0.0080: real time      0.0080
    TRIAL :  cpu time      0.1512: real time      0.1511
    CORREC:  cpu time     15.7450: real time     15.7503
    CHARGE:  cpu time      1.2452: real time      1.2463
    --------------------------------------------
      LOOP:  cpu time     31.7580: real time     31.7706

 eigenvalue-minimisations  :     0
 total energy-change (2. order) :-0.2333855E-01  (-0.6195514E-02)
 number of electron      13.9999987 magnetization 
 augmentation part        0.3323518 magnetization 

 Free energy of the ion-electron system (eV)
  ---------------------------------------------------
  alpha Z        PSCENC =         0.04919692
  Ewald energy   TEWEN  =       568.56322590
  -Hartree energ DENC   =      -862.55223968
  -exchange      EXHF   =         0.00000000
  -V(xc)+E(xc)   XCENC  =        44.78192210
  PAW double counting   =       942.25845924     -944.35220830
  entropy T*S    EENTRO =        -0.00000000
  eigenvalues    EBANDS =      -164.60151559
  atomic energy  EATOM  =       377.20013840
  ---------------------------------------------------
  free energy    TOTEN  =       -38.65302100 eV

  energy without entropy =      -38.65302100  energy(sigma->0) =      -38.65302100


--------------------------------------------------------------------------------------------------------




--------------------------------------- Iteration      1(  12)  ---------------------------------------


    POTLOK:  cpu time     14.6378: real time     14.6432
    SETDIJ:  cpu time      0.0079: real time      0.0079
    TRIAL :  cpu time      0.1522: real time      0.1521
    CORREC:  cpu time     15.7083: real time     15.7150
    CHARGE:  cpu time      1.2470: real time      1.2472
    --------------------------------------------
      LOOP:  cpu time     31.7552: real time     31.7829

 eigenvalue-minimisations  :     0
 total energy-change (2. order) :-0.6210359E-02  (-0.1721042E-02)
 number of electron      13.9999987 magnetization 
 augmentation part        0.3330570 magnetization 

 Free energy of the ion-electron system (eV)
  ---------------------------------------------------
  alpha Z        PSCENC =         0.04919692
  Ewald energy   TEWEN  =       568.56322590
  -Hartree energ DENC   =      -862.20804501
  -exchange      EXHF   =         0.00000000
  -V(xc)+E(xc)   XCENC  =        44.74780156
  PAW double counting   =       934.87744963     -936.97249254
  entropy T*S    EENTRO =        -0.00000000
  eigenvalues    EBANDS =      -164.91650622
  atomic energy  EATOM  =       377.20013840
  ---------------------------------------------------
  free energy    TOTEN  =       -38.65923136 eV

  energy without entropy =      -38.65923136  energy(sigma->0) =      -38.65923136


--------------------------------------------------------------------------------------------------------




--------------------------------------- Iteration      1(  13)  ---------------------------------------


    POTLOK:  cpu time     14.3747: real time     14.3801
    SETDIJ:  cpu time      0.0078: real time      0.0078
    TRIAL :  cpu time      0.1503: real time      0.1502
    CORREC:  cpu time     15.5458: real time     15.5517
    CHARGE:  cpu time      1.2470: real time      1.2473
    --------------------------------------------
      LOOP:  cpu time     31.3335: real time     31.3600

 eigenvalue-minimisations  :     0
 total energy-change (2. order) :-0.1727196E-02  (-0.6102928E-03)
 number of electron      13.9999987 magnetization 
 augmentation part        0.3332613 magnetization 

 Free energy of the ion-electron system (eV)
  ---------------------------------------------------
  alpha Z        PSCENC =         0.04919692
  Ewald energy   TEWEN  =       568.56322590
  -Hartree energ DENC   =      -862.58640405
  -exchange      EXHF   =         0.00000000
  -V(xc)+E(xc)   XCENC  =        44.76467398
  PAW double counting   =       932.95261183     -935.04890265
  entropy T*S    EENTRO =        -0.00000000
  eigenvalues    EBANDS =      -164.55549889
  atomic energy  EATOM  =       377.20013840
  ---------------------------------------------------
  free energy    TOTEN  =       -38.66095855 eV

  energy without entropy =      -38.66095855  energy(sigma->0) =      -38.66095855


--------------------------------------------------------------------------------------------------------




--------------------------------------- Iteration      1(  14)  ---------------------------------------


    POTLOK:  cpu time     14.2282: real time     14.2335
    SETDIJ:  cpu time      0.0080: real time      0.0080
    TRIAL :  cpu time      0.1515: real time      0.1513
    CORREC:  cpu time     15.6211: real time     15.6269
    CHARGE:  cpu time      1.2476: real time      1.2485
    --------------------------------------------
      LOOP:  cpu time     31.2587: real time     31.2867

 eigenvalue-minimisations  :     0
 total energy-change (2. order) :-0.6133583E-03  (-0.2321404E-03)
 number of electron      13.9999987 magnetization 
 augmentation part        0.3334729 magnetization 

 Free energy of the ion-electron system (eV)
  ---------------------------------------------------
  alpha Z        PSCENC =         0.04919692
  Ewald energy   TEWEN  =       568.56322590
  -Hartree energ DENC   =      -862.51759051
  -exchange      EXHF   =         0.00000000
  -V(xc)+E(xc)   XCENC  =        44.76253072
  PAW double counting   =       932.58637629     -934.68344347
  entropy T*S    EENTRO =        -0.00000000
  eigenvalues    EBANDS =      -164.62200616
  atomic energy  EATOM  =       377.20013840
  ---------------------------------------------------
  free energy    TOTEN  =       -38.66157191 eV

  energy without entropy =      -38.66157191  energy(sigma->0) =      -38.66157191


--------------------------------------------------------------------------------------------------------




--------------------------------------- Iteration      1(  15)  ---------------------------------------


    POTLOK:  cpu time     14.3320: real time     14.3370
    SETDIJ:  cpu time      0.0080: real time      0.0079
    TRIAL :  cpu time      0.1510: real time      0.1509
    CORREC:  cpu time     15.5012: real time     15.5073
    CHARGE:  cpu time      1.2425: real time      1.2432
    --------------------------------------------
      LOOP:  cpu time     31.2371: real time     31.2644

 eigenvalue-minimisations  :     0
 total energy-change (2. order) :-0.2332111E-03  (-0.7735932E-04)
 number of electron      13.9999987 magnetization 
 augmentation part        0.3335424 magnetization 

 Free energy of the ion-electron system (eV)
  ---------------------------------------------------
  alpha Z        PSCENC =         0.04919692
  Ewald energy   TEWEN  =       568.56322590
  -Hartree energ DENC   =      -862.61297863
  -exchange      EXHF   =         0.00000000
  -V(xc)+E(xc)   XCENC  =        44.76907040
  PAW double counting   =       933.62804950     -935.72551160
  entropy T*S    EENTRO =        -0.00000000
  eigenvalues    EBANDS =      -164.53299602
  atomic energy  EATOM  =       377.20013840
  ---------------------------------------------------
  free energy    TOTEN  =       -38.66180512 eV

  energy without entropy =      -38.66180512  energy(sigma->0) =      -38.66180512


--------------------------------------------------------------------------------------------------------




--------------------------------------- Iteration      1(  16)  ---------------------------------------


    POTLOK:  cpu time     14.1882: real time     14.1926
    SETDIJ:  cpu time      0.0079: real time      0.0078
    TRIAL :  cpu time      0.1503: real time      0.1516
    CORREC:  cpu time     15.4657: real time     15.4717
    CHARGE:  cpu time      1.2429: real time      1.2431
    --------------------------------------------
      LOOP:  cpu time     31.0572: real time     31.0848

 eigenvalue-minimisations  :     0
 total energy-change (2. order) :-0.7702965E-04  (-0.1939800E-04)
 number of electron      13.9999987 magnetization 
 augmentation part        0.3334858 magnetization 

 Free energy of the ion-electron system (eV)
  ---------------------------------------------------
  alpha Z        PSCENC =         0.04919692
  Ewald energy   TEWEN  =       568.56322590
  -Hartree energ DENC   =      -862.66951569
  -exchange      EXHF   =         0.00000000
  -V(xc)+E(xc)   XCENC  =        44.77261043
  PAW double counting   =       934.68699965     -936.78446105
  entropy T*S    EENTRO =        -0.00000000
  eigenvalues    EBANDS =      -164.48007671
  atomic energy  EATOM  =       377.20013840
  ---------------------------------------------------
  free energy    TOTEN  =       -38.66188215 eV

  energy without entropy =      -38.66188215  energy(sigma->0) =      -38.66188215


--------------------------------------------------------------------------------------------------------




--------------------------------------- Iteration      1(  17)  ---------------------------------------


    POTLOK:  cpu time     14.1852: real time     14.1899
    SETDIJ:  cpu time      0.0081: real time      0.0081
    TRIAL :  cpu time      0.1498: real time      0.1497
    CORREC:  cpu time     15.4283: real time     15.4340
    CHARGE:  cpu time      1.2495: real time      1.2504
    --------------------------------------------
      LOOP:  cpu time     31.0230: real time     31.0493

 eigenvalue-minimisations  :     0
 total energy-change (2. order) :-0.1910954E-04  (-0.5900145E-05)
 number of electron      13.9999987 magnetization 
 augmentation part        0.3334482 magnetization 

 Free energy of the ion-electron system (eV)
  ---------------------------------------------------
  alpha Z        PSCENC =         0.04919692
  Ewald energy   TEWEN  =       568.56322590
  -Hartree energ DENC   =      -862.64865229
  -exchange      EXHF   =         0.00000000
  -V(xc)+E(xc)   XCENC  =        44.77155564
  PAW double counting   =       935.16691250     -937.26421831
  entropy T*S    EENTRO =        -0.00000000
  eigenvalues    EBANDS =      -164.50006002
  atomic energy  EATOM  =       377.20013840
  ---------------------------------------------------
  free energy    TOTEN  =       -38.66190126 eV

  energy without entropy =      -38.66190126  energy(sigma->0) =      -38.66190126


--------------------------------------------------------------------------------------------------------




--------------------------------------- Iteration      1(  18)  ---------------------------------------


    POTLOK:  cpu time     14.1236: real time     14.1284
    SETDIJ:  cpu time      0.0078: real time      0.0078
    TRIAL :  cpu time      0.1497: real time      0.1506
    CORREC:  cpu time     15.5445: real time     15.5570
    EDDIAG:  cpu time      0.0662: real time      0.0700
    CHARGE:  cpu time      1.2415: real time      1.2419
    --------------------------------------------
      LOOP:  cpu time     31.1477: real time     31.1734

 eigenvalue-minimisations  :     0
 total energy-change (2. order) :-0.5437529E-05  (-0.2130209E-05)
 number of electron      13.9999987 magnetization 
 augmentation part        0.3333971 magnetization 

 Free energy of the ion-electron system (eV)
  ---------------------------------------------------
  alpha Z        PSCENC =         0.04919692
  Ewald energy   TEWEN  =       568.56322590
  -Hartree energ DENC   =      -862.67213558
  -exchange      EXHF   =         0.00000000
  -V(xc)+E(xc)   XCENC  =        44.77278034
  PAW double counting   =       935.44313436     -937.54031090
  entropy T*S    EENTRO =        -0.00000000
  eigenvalues    EBANDS =      -164.47793614
  atomic energy  EATOM  =       377.20013840
  ---------------------------------------------------
  free energy    TOTEN  =       -38.66190670 eV

  energy without entropy =      -38.66190670  energy(sigma->0) =      -38.66190670


--------------------------------------------------------------------------------------------------------


  average scaling for gradient   1.2475


 average (electrostatic) potential at core
  the test charge radii are     0.6991  0.5201
  (the norm of the test charge is              1.0000)
       1 -58.7542       2 -58.7542       3 -42.7763       4 -42.7758       5 -42.7758
       6 -42.7763       7 -42.7758       8 -42.7758
 
 
 
 E-fermi :  -8.4581     XC(G=0):  -0.0890     alpha+bet : -0.0231

 Fermi energy:        -8.4581287052

 k-point     1 :       0.0000    0.0000    0.0000
  band No.  band energies     occupation 
      1     -18.9377      2.00000
      2     -15.4203      2.00000
      3     -10.8440      2.00000
      4     -10.8440      2.00000
      5      -9.1522      2.00000
      6      -8.5233      2.00000
      7      -8.5233      2.00000
      8      -0.8640      0.00000
      9      -0.2322      0.00000
     10       0.0236      0.00000
     11       0.0245      0.00000
     12       0.0388      0.00000
     13       0.2168      0.00000
     14       0.5235      0.00000
     15       0.6660      0.00000
     16       0.8905      0.00000


--------------------------------------------------------------------------------------------------------


 soft charge-density along one line, spin component           1
         0         1         2         3         4         5         6         7         8         9
 total charge-density along one line
 
 pseudopotential strength for first ion, spin component:           1
 10.260  13.645  -0.000  -0.000  -0.000   0.000   0.000   0.000
 13.645  18.146  -0.000  -0.000  -0.000   0.000  -0.000   0.000
 -0.000  -0.000  -4.253   0.000  -0.000   8.319  -0.000   0.000
 -0.000  -0.000   0.000  -4.252  -0.000  -0.000   8.317   0.000
 -0.000  -0.000  -0.000  -0.000  -4.253   0.000   0.000   8.319
  0.000   0.000   8.319  -0.000   0.000 -18.410   0.000  -0.000
  0.000  -0.000  -0.000   8.317   0.000   0.000 -18.409  -0.000
  0.000   0.000   0.000   0.000   8.319  -0.000  -0.000 -18.410
 total augmentation occupancy for first ion, spin component:           1
  8.219  -3.620   0.001   0.071   0.000   0.000   0.002   0.000
 -3.620   1.609  -0.000  -0.037   0.000  -0.000   0.001  -0.000
  0.001  -0.000   1.635  -0.000   0.000   0.137  -0.000  -0.000
  0.071  -0.037  -0.000   1.590   0.000  -0.000   0.138   0.000
  0.000   0.000   0.000   0.000   1.635  -0.000   0.000   0.137
  0.000  -0.000   0.137  -0.000  -0.000   0.012  -0.000  -0.000
  0.002   0.001  -0.000   0.138   0.000  -0.000   0.013  -0.000
  0.000  -0.000  -0.000   0.000   0.137  -0.000  -0.000   0.012


------------------------ aborting loop because EDIFF is reached ----------------------------------------


    FORLOC:  cpu time      0.0848: real time      0.0856
    FORNL :  cpu time      0.0962: real time      0.0961
    STRESS:  cpu time      0.2859: real time      0.2858
    FORCOR:  cpu time     14.1494: real time     14.1544
    OFIELD:  cpu time      0.0016: real time      0.0015

  FORCE on cell =-STRESS in cart. coord.  units (eV):
  Direction    XX          YY          ZZ          XY          YZ          ZX
  --------------------------------------------------------------------------------------
  Alpha Z     0.04920     0.04920     0.04920
  Ewald     144.00011   153.35854   271.20472    -0.00000    -0.00162    -0.00000
  Hartree   254.85363   264.15698   343.64112     0.00000    -0.00142    -0.00000
  E(xc)     -51.15891   -51.15920   -51.47163     0.00000     0.00000    -0.00000
  Local    -506.83326  -525.49472  -729.02041    -0.00000     0.00292    -0.00000
  n-local   -25.60254   -25.56917   -24.29325     0.00004    -0.00298     0.00001
  augment     0.06005     0.05991     0.12366     0.00000    -0.00007    -0.00000
  Kinetic   184.44532   184.44558   189.92104    -0.00008     0.00002    -0.00004
  Fock        0.00000     0.00000     0.00000     0.00000     0.00000     0.00000
  -------------------------------------------------------------------------------------
  Total      -0.18642    -0.15288     0.15445     0.00000    -0.00316     0.00000
  in kB      -0.01885    -0.01546     0.01561     0.00000    -0.00032     0.00000
  external pressure =       -0.01 kB  Pullay stress =        0.00 kB


 VOLUME and BASIS-vectors are now :
 -----------------------------------------------------------------------------
  energy-cutoff  :      500.00
  volume of cell :    15847.84
      direct lattice vectors                 reciprocal lattice vectors
    23.670780182  0.000000000  0.000000000     0.042246178  0.000000000  0.000000000
     0.000000000 22.317026138  0.000000000     0.000000000  0.044808838  0.000000000
     0.000000000  0.000000000 30.000000000     0.000000000  0.000000000  0.033333333

  length of vectors
    23.670780182 22.317026138 30.000000000     0.042246178  0.044808838  0.033333333


 FORCES acting on ions:
    Electron-Ion                     Ewald-Force                    Non-Local-Force
 -----------------------------------------------------------------------------------------------
   0.217E-12 -.636E-04 -.792E+02   0.204E-13 -.161E-04 0.791E+02   0.108E-20 -.412E-03 0.164E+00
   0.218E-12 0.636E-04 0.792E+02   0.213E-13 0.161E-04 -.791E+02   0.166E-21 0.412E-03 -.164E+00
   0.563E-13 -.552E+02 -.313E+02   -.555E-15 0.605E+02 0.335E+02   0.933E-22 -.531E+01 -.210E+01
   0.478E+02 0.276E+02 -.313E+02   -.524E+02 -.303E+02 0.334E+02   0.460E+01 0.266E+01 -.210E+01
   -.478E+02 0.276E+02 -.313E+02   0.524E+02 -.303E+02 0.334E+02   -.460E+01 0.266E+01 -.210E+01
   0.569E-13 0.552E+02 0.313E+02   -.444E-15 -.605E+02 -.335E+02   0.215E-21 0.531E+01 0.210E+01
   0.478E+02 -.276E+02 0.313E+02   -.524E+02 0.303E+02 -.334E+02   0.460E+01 -.266E+01 0.210E+01
   -.478E+02 -.276E+02 0.313E+02   0.524E+02 0.303E+02 -.334E+02   -.460E+01 -.266E+01 0.210E+01
 -----------------------------------------------------------------------------------------------
   0.105E-11 0.970E-12 0.806E-12   0.000E+00 0.000E+00 0.213E-13   -.888E-15 0.000E+00 -.444E-15
 
 
 POSITION                                       TOTAL-FORCE (eV/Angst)
 -----------------------------------------------------------------------------------
     11.83539     11.15851     15.76221         0.000000     -0.000488      0.111085
     11.83539     11.15851     14.23779         0.000000      0.000488     -0.111085
     11.83539     12.17747     16.15723         0.000000     -0.006992      0.020093
     10.95295     10.64903     16.15723         0.006735      0.003596      0.019786
     12.71783     10.64903     16.15723        -0.006735      0.003596      0.019786
     11.83539     10.13956     13.84277         0.000000      0.006992     -0.020093
     10.95295     11.66799     13.84277         0.006735     -0.003596     -0.019786
     12.71783     11.66799     13.84277        -0.006735     -0.003596     -0.019786
 -----------------------------------------------------------------------------------
    total drift:                                0.000000      0.000000      0.000000


--------------------------------------------------------------------------------------------------------



  FREE ENERGIE OF THE ION-ELECTRON SYSTEM (eV)
  ---------------------------------------------------
  free  energy   TOTEN  =       -38.66190670 eV

  energy  without entropy=      -38.66190670  energy(sigma->0) =      -38.66190670
 


--------------------------------------------------------------------------------------------------------


 BEEFens 2000 ensemble energies
             -0.116495818274067E+02
              0.389913246862754E-01
             -0.236733326123415E+01
              0.783871482495697E+01
             -0.406965768610506E+01
             -0.304926965329964E+01
             -0.822597529141778E+01
             -0.172009249483079E+02
             -0.685153796721557E+01
             -0.754153260320038E+01
             -0.593980025174555E+01
              0.433251138274521E+00
              0.289235400239040E+00
              0.193033371638826E+00
              0.590067660245317E+00
              0.857390011440161E+01
             -0.406530466313052E+01
             -0.253169982828997E+01
              0.420757933914550E+01
             -0.203651493282996E+02
              0.963151345293510E+01
             -0.405626558119469E+01
             -0.115041420911687E+01
             -0.187512261697903E+01
              0.318168384594770E-01
             -0.101416595932803E+01
              0.166372702811420E+02
             -0.342464731978105E+01
             -0.147916702661547E+01
             -0.980804132618320E+01
              0.136192032728943E+02
             -0.156518028115659E+01
             -0.754280727092954E+01
              0.333305734196124E+01
             -0.516015929739268E+00
              0.439897879629049E+01
             -0.360201184956857E+00
              0.566973723640096E+00
              0.640757349602223E+01
             -0.187176335973883E+02
              0.105297827980748E+02
              0.205882762782416E+01
             -0.158745697400381E+01
             -0.535943696041520E+01
              0.241007168103320E+01
             -0.268768177587820E+01
              0.876814564073936E+01
              0.648866990947104E+01
             -0.441406200588671E+01
             -0.533443187147876E+01
             -0.565101397385263E+01
             -0.695586783580096E+01
              0.408200272672382E+01
             -0.939024158245138E+01
              0.261026438902712E+01
              0.109575258435300E+02
              0.126997327449642E+02
              0.615042708444981E+01
              0.330753431703448E+01
              0.564270671599924E+01
              0.170872413715567E+02
              0.361794813302778E+01
             -0.102118588202257E+02
             -0.237178853349371E+01
             -0.540974410264324E+01
              0.114117834159368E+02
             -0.139309661114899E+02
             -0.114395581111865E+02
             -0.593380378419103E+01
             -0.260212226797826E+01
             -0.744237716862948E+01
              0.528458740515549E+01
              0.263720290647414E+01
              0.224668469619493E+01
             -0.742139843627506E+01
             -0.631602810808450E+01
             -0.102894008890593E+02
              0.646064942807014E+01
             -0.583503282665722E+01
              0.591476231252078E+01
             -0.153951670895348E+01
             -0.575264904733844E+01
             -0.950744669850581E+01
             -0.265489272764431E+01
             -0.261798283575536E+01
             -0.246560397437341E+01
              0.767705452903825E+01
              0.134745428008729E+02
             -0.749262817348741E+01
             -0.143294846682770E+02
             -0.359416244562421E+01
              0.202336365575348E+02
             -0.106534128607783E+02
              0.597560000451279E+01
             -0.144285965148494E+01
             -0.115258740891312E+02
              0.514677365178572E+01
              0.606181511140097E+01
             -0.269496650394297E+01
              0.578929727207183E+01
             -0.509318728608901E+01
             -0.100559968534417E+02
              0.176471255168872E+02
              0.803846442864146E+01
              0.465719758936530E+01
              0.177204592753188E+01
              0.318908581463888E+01
              0.150989733532366E+02
             -0.523363195435035E+01
              0.699601345561948E+00
             -0.258604991571684E+02
              0.383525468806785E+01
             -0.125382767850475E+02
              0.235568596453053E+01
              0.380233480471665E+01
             -0.619599105113406E+01
             -0.968429848682050E+01
              0.613848476225215E+00
             -0.568105863693486E+01
              0.733274511120869E+01
             -0.831032789823584E+01
             -0.115548893846830E+01
             -0.693553179070114E+01
             -0.175040712541175E+00
              0.391015740409401E+00
              0.362004530102907E+01
              0.141371689869402E+00
             -0.128213899413436E+01
              0.117392548435975E+02
              0.167237069314572E+02
              0.903857393781347E+01
              0.130524939048568E+02
             -0.266407727276512E+01
              0.120204800787344E+01
              0.949040063682541E+01
              0.337198093458859E-01
             -0.138769055661130E+02
             -0.792912429064038E+01
             -0.914477458419683E+01
             -0.542344203500590E+01
              0.503668395223694E+01
             -0.217830979288448E+02
             -0.242636448679319E+01
              0.776609816019338E+01
             -0.763560319087102E+01
             -0.599954243771921E+01
              0.993777408231240E+01
              0.877496649235842E+01
             -0.563536321225764E+01
              0.501541441564473E+01
             -0.501793512302632E+01
              0.699345674682545E+01
              0.142120124565198E+01
              0.260852453486931E+01
             -0.154664014918645E+02
             -0.875906886923687E+01
             -0.208116970150854E+01
             -0.958232874320975E+00
             -0.734306262611292E+01
              0.201568943950888E+02
             -0.258379288350145E+01
             -0.577251823135958E+01
              0.750812633613546E+01
             -0.840011716942608E+01
             -0.681832310705135E+01
              0.546967186866307E+01
              0.198764733592188E+01
              0.189902841792255E+01
              0.245190229235199E+01
             -0.220345450567824E+01
              0.239851626729993E+01
              0.108550806933629E+02
             -0.536379695200711E+01
              0.348798221872748E+01
              0.166603761068671E+02
              0.582799546322973E+01
             -0.677798835796295E+00
             -0.327250155450065E+01
              0.278462145824459E+02
             -0.429565495034809E+01
              0.720925497828763E+01
              0.510790097931574E+01
              0.565923059341498E+01
              0.171634864689203E+02
              0.866611112651660E+01
             -0.581845673972980E+00
              0.413759521729783E+01
              0.942645131671547E+01
              0.660570016984660E+01
             -0.109827103709669E+02
              0.173818766650457E+02
             -0.162842645459746E+02
             -0.253472103555767E+01
              0.102974072718803E+02
              0.206770474948809E+01
              0.587071831257163E+00
              0.558535424105543E+01
              0.353528850828076E+01
              0.594100260406324E+01
             -0.112729094540051E+02
              0.551277707561653E+00
             -0.451653227207518E+01
             -0.716968241580041E+00
              0.354507030553464E-01
             -0.223022446458695E+01
             -0.106753760517347E+01
              0.158361806032300E+02
             -0.884609119725798E+00
             -0.542821075267562E+01
             -0.478848356471739E+00
              0.258210628856300E+01
             -0.111239799049999E+02
             -0.895434757732781E+01
             -0.613790733626947E+01
             -0.114083640271795E+02
             -0.311589104123271E+01
             -0.774935630765180E+01
              0.308587923348028E+01
             -0.164090515908512E+00
             -0.240517258196516E+01
             -0.164028876671268E+01
              0.130439512318194E+01
             -0.387713281048782E+01
              0.118927934779145E+02
             -0.158263952342873E+02
             -0.203883421756966E+01
             -0.287521352577549E+01
              0.319580742220124E+01
              0.355717980989379E+01
             -0.887708836017839E+01
             -0.262416536753728E+01
              0.839973406215557E+01
             -0.452198824356804E+01
              0.254099335916756E+01
              0.671038377761029E+01
              0.498988021372639E-01
              0.209441538680059E+02
             -0.257849563811448E+01
             -0.680910071795120E+01
              0.146764616654309E-01
             -0.530906035141834E+01
              0.910508747669597E+01
             -0.849356707268581E+01
              0.273294729332940E+01
              0.929711448701448E+01
             -0.263949300168784E+01
              0.215611130335523E+02
              0.230477925284150E+02
             -0.132372608559991E+02
              0.106199098988297E+02
              0.378975827355873E+01
             -0.989134727615518E+01
              0.403699303938223E+01
              0.758779401737849E+01
              0.794232102882477E+01
              0.671501796896194E+00
              0.379580999192530E+01
              0.134220734479590E+02
             -0.435793982630759E+01
              0.192808457042417E+01
              0.121812797900719E+02
             -0.638452802838898E+01
             -0.376054733832665E+01
              0.106247527213945E+02
              0.572584286036757E+01
              0.140466932493070E+02
              0.568784227748078E+01
              0.239402150130884E+01
              0.443947017186906E+01
              0.784916262209236E+01
             -0.903664960376871E+01
              0.966168361373448E+00
              0.400912751845785E+01
              0.139308027855091E+01
              0.444377252196503E+01
             -0.115188662936225E+02
              0.626167044076362E+01
             -0.776236728884022E+01
             -0.609396312721478E+01
              0.348948587780710E+01
             -0.232327765484661E+01
              0.107276833471967E+02
             -0.361347931379430E+01
              0.501602669528702E+01
              0.558834055988277E+01
              0.145691715825136E+02
              0.996737971958187E+01
              0.954622954211342E+01
             -0.144850310226505E+01
             -0.141511899161667E+01
             -0.592800884596015E+01
              0.146642498574810E+02
              0.149757631489758E+02
              0.677053243677417E+01
             -0.465547146152443E+01
              0.906798594799307E+01
             -0.116374319747306E+01
              0.380176631894150E+01
              0.123354883734209E+02
             -0.649191038666537E+00
             -0.214002170307101E+01
             -0.485566477608492E+01
             -0.107834645988390E+02
              0.176797294324829E+02
              0.889117605405326E+01
             -0.115673568368599E+02
             -0.321242390325586E+01
              0.429370036968099E+01
             -0.241932747427752E+01
              0.113182778616986E+02
              0.311181974092344E+01
              0.143522423418373E+02
              0.492655446619476E+01
             -0.424020184939084E+01
              0.344463498533095E+01
             -0.125805675373677E+01
             -0.467661899386250E+01
              0.310561333599514E+01
              0.363734030415557E+01
              0.165462265694832E+02
              0.137740703807026E+02
              0.106467891131536E+02
              0.130109535219839E+02
              0.177256115457496E+01
             -0.523895577953323E+01
              0.237408533824458E+01
             -0.636923144478476E+01
             -0.965528296188293E+01
             -0.102882499102062E+02
             -0.575067211860942E+01
             -0.201921829375810E+02
             -0.648428231342873E+01
             -0.155233725844766E+02
              0.342648452995400E+01
             -0.858198596588194E+01
              0.878898209991942E+01
             -0.173620837337151E+02
             -0.559113346375327E+01
              0.814632096037196E+01
              0.374696008089412E+01
             -0.158527740530258E+02
              0.987789024230358E+01
             -0.526674896107323E+01
              0.985299926953912E+01
             -0.509882981839532E+01
             -0.137563947567824E+02
              0.296677488186910E+01
             -0.112941760075611E+02
             -0.145258904540328E+01
             -0.227613856590389E+00
              0.764338473062953E+01
              0.230038084437327E+02
             -0.821671727698654E+01
             -0.685421038038656E+01
             -0.144277232206315E+01
             -0.170426246579922E+01
             -0.145448074750478E+02
             -0.109976141056205E+02
              0.969643175078875E+01
             -0.389548764694339E+01
              0.341901082513886E+01
             -0.877496549860686E+01
             -0.240793572464572E+01
             -0.800063435026836E+01
              0.900631125454746E+01
              0.259822939335371E+01
             -0.450178716850584E+01
             -0.261383707849171E+01
              0.195304163545094E+01
             -0.137376304340776E+01
              0.695018493154904E+01
             -0.493446022034122E+01
              0.160280854278010E+01
              0.618201160805632E+01
              0.243931072514872E+01
             -0.401329712679230E+01
              0.285662972175571E+02
              0.105668746819256E+02
              0.124949007517196E+01
              0.141253335137486E+01
             -0.111400331359846E+02
              0.589196296477589E+01
             -0.134035547342863E+02
             -0.587825593174793E+01
             -0.107805685084403E+02
             -0.349275284176075E+01
              0.109447624388916E+02
             -0.105238580272583E+02
              0.401934537616671E+01
             -0.925336631535572E+00
              0.312588152163915E+00
             -0.631096806300278E+01
             -0.790571627753599E+01
             -0.132405806659007E+01
             -0.675296802250846E+01
             -0.410677401702974E+01
             -0.692696170305659E+01
             -0.116822804979532E+01
             -0.583368793418149E+01
             -0.897687680054169E+01
              0.437046240843844E+01
             -0.260673071983104E+01
              0.405181335917219E+01
              0.206102956099408E+01
             -0.137024213772114E+02
             -0.969935762141263E+01
             -0.886647293143629E+01
              0.614648868693004E+01
             -0.678127520374375E+00
             -0.113648175714833E+02
              0.105746262557332E+02
             -0.792670445369194E+01
              0.998473326412975E+01
             -0.558546658942062E+01
             -0.867194879780427E+01
              0.475327956485778E+01
[...]
  345          fftbrc_mpi                           22.882195                       1133   4
  346            fftbas_plan_mpi                      22.878693                     1133   5
  347              dfftw_execute                         8.940066                   3399   6
  348              map_forward                           6.560072                   1138   6
  349                map_gather                            1.187401                  574   7
  350                m_alltoallv_z                         3.004044                  574   7
  351                map_scatter                           2.354666                  574   7
  352              map_backward                          6.602633                   1128   6
  353                map_gather                            1.985059                  564   7
  354                m_alltoallv_z                         3.456285                  564   7
  355                map_scatter                           1.148884                  564   7
  356        ggaall_grid                           8.866562                          101   3
  357        m_sumb_d                              0.061203                          510   3
  358        pothar                                0.019449                            5   3
  359          m_sumb_d                              0.000401                          5   4
  360        m_bcast_d                             0.025466                            5   3
  361      potlok_metagga                        0.000005                              5   2
  362      set_dd_magatom                        0.000003                              3   2
  363      set_dd_paw                            0.035828                              5   2
  364        set_rsgf_all                          0.000010                            5   3
  365        m_sumb_d                              0.035170                           35   3
  366      wavpre_noio                           0.167059                              2   2
  367        stufak                                0.077577                            2   3
  368      eddiag                                0.120473                              2   2
  369        overl                                 0.000026                            2   3
  370        redis_proj                            0.001178                            6   3
  371          m_alltoall_d                          0.001117                          6   4
  372        fftwav_mpi                            0.051234                            2   3
  373          fft3d_mpi                             0.044659                          2   4
  374            fftbrc_mpi                            0.037621                        2   5
  375              fftbas_plan_mpi                       0.037616                      2   6
  376                dfftw_execute                         0.023284                    6   7
  377                map_forward                           0.012923                    4   7
  378                  map_gather                            0.002992                  2   8
  379                  m_alltoallv_z                         0.001928                  2   8
  380                  map_scatter                           0.003908                  2   8
  381        hamilt_local                          0.048079                            2   3
  382          vhamil                                0.007736                          2   4
  383          kinhamil                              0.040320                          2   4
  384            fftext_mpi                            0.039550                        2   5
  385              fft3d_mpi                             0.038116                      2   6
  386                fftbrc_mpi                            0.031010                    2   7
  387                  fftbas_plan_mpi                       0.031003                  2   8
  388                    dfftw_execute                         0.021363                6   9
  389                    map_backward                          0.008521                4   9
  390                      map_gather                            0.003423              2  10
  391                      m_alltoallv_z                         0.001983              2  10
  392                      map_scatter                           0.003066              2  10
  393        redis_pw                              0.015694                            6   3
  394          m_alltoall_d                          0.014366                          6   4
  395        orth1                                 0.000621                            2   3
  396        m_sumb_d                              0.000874                            2   3
  397        shift_bands_between_low_high          0.000003                            2   3
  398        lincom                                0.000901                            2   3
  399      set_charge                            2.495997                              2   2
  400        soft_charge                           0.137680                            2   3
  401          fftwav_mpi                            0.049930                          2   4
  402            fft3d_mpi                             0.044502                        2   5
  403              fftbrc_mpi                            0.037871                      2   6
  404                fftbas_plan_mpi                       0.037865                    2   7
  405                  dfftw_execute                         0.024002                  6   8
  406                  map_forward                           0.012226                  4   8
  407                    map_gather                            0.002673                2   9
  408                    m_alltoallv_z                         0.001884                2   9
  409                    map_scatter                           0.003766                2   9
  410          pw_charge                             0.005767                          2   4
  411          m_sumb_d                              0.033530                          2   4
  412          fft_gq                                0.031198                          2   4
  413            fft3d_mpi                             0.029203                        2   5
  414              fftbrc_mpi                            0.024978                      2   6
  415                fftbas_plan_mpi                       0.024971                    2   7
  416                  dfftw_execute                         0.011522                  6   8
  417                  map_backward                          0.012305                  4   8
  418                    map_gather                            0.005278                4   9
  419                    m_alltoallv_z                         0.006057                4   9
  420                    map_scatter                           0.000902                4   9
  421        m_sumb_d                              0.132729                            2   3
  422        depsum                                0.009622                            2   3
  423          m_sumb_d                              0.009572                          2   4
  424        augmentation_charge                   0.049405                            2   3
  425          m_sumb_d                              0.000124                          2   4
  426          fft3d_mpi                             0.042804                          2   4
  427            fftbrc_mpi                            0.040381                        2   5
  428              fftbas_plan_mpi                       0.040374                      2   6
  429                dfftw_execute                         0.015384                    6   7
  430                map_backward                          0.023526                    4   7
  431                  map_gather                            0.007028                  2   8
  432                  m_alltoallv_z                         0.012427                  2   8
  433                  map_scatter                           0.004026                  2   8
 
 Flat profile
 ============
 
             routine name                   CPU           calls
 ---------------------------------------------------------------
 potlok                                724.031542          58
 total_time                            378.157862           1
 set_charge                             59.790255          55
 dfftw_execute                          45.227253       16839
 force_and_stress                       36.878271           3
 m_alltoallv_z                          32.522689        5726
 ggaall_grid                            28.746497         157
 map_scatter                            16.653229        5726
 map_gather                             14.590526        5726
 fft3d_mpi                               7.944156        5613
 m_sumb_d                                7.238395        3675
 fftbas_plan_mpi                         3.955707        5613
 m_alltoall_d                            0.923824        1060
 fftwav_mpi                              0.645864         208
 elmin_all                               0.631656           3
 map_forward                             0.492498        5696
 edwav                                   0.426189          52
 eccp                                    0.349826         109
 m_bcast_d                               0.314670         125
 pothar                                  0.223481          58
 forloc                                  0.221473           3
 augmentation_charge                     0.215017          55
 soft_charge                             0.209584          55
 vhamil                                  0.192623          49
 pw_charge                               0.165112          55
 stufak                                  0.117483           3
 lincom                                  0.094998         164
 wavpre_noio                             0.089482           2
 eddav                                   0.085159           5
 m_bcast_z                               0.084442          17
 redis_pw                                0.075255         314
 lapack                                  0.073489          18
 orth1                                   0.072622         135
 strelo                                  0.069878           3
 map_backward                            0.063862        5530
 forhar                                  0.062319           3
 w1_dscal                                0.062089          26
 rspher_all                              0.054781          40
 fft_gq                                  0.053264          55
 fftext_mpi                              0.051888          75
 strehar                                 0.045990           3
 inisym                                  0.042805           1
 setdij_                                 0.035999         137
 rpro_isp                                0.025487          39
 fftbrc_mpi                              0.017384        5613
 w1_copy                                 0.015316          54
 ggemm                                   0.014696          18
 choleski                                0.014234          55
 eddiag                                  0.013067          31
 kinhamil                                0.012996          49
 redis_proj                              0.009833         746
 set_dd_paw                              0.007778          61
 racc0                                   0.006831          44
 rpro1                                   0.005782          39
 fewald                                  0.005109           3
 rpromu_gemm                             0.004316         312
 densta                                  0.004014          66
 overl                                   0.003924         169
 rpromu                                  0.003716          39
 orthch                                  0.003009          55
 brgrid                                  0.002904           1
 apply_precond                           0.002681          13
 setup_precond                           0.002650           5
 rsp                                     0.001887           3
 newband                                 0.001657          23
 depsum                                  0.001578          55
 strnlr                                  0.001188           3
 strkin                                  0.001083           3
 redis_pw_all                            0.000581          52
 hamiltmu                                0.000478          18
 hamilt_local                            0.000396          31
 overl1                                  0.000314          18
 fornlr                                  0.000307           3
 redis_pw_over_bands                     0.000244          57
 crpa_reader                             0.000238           1
 fordep                                  0.000189           3
 raccmu_                                 0.000182          18
 rcp                                     0.000148           3
 set_rsgf_all                            0.000134          61
 potlok_metagga                          0.000065          58
 w1_projall                              0.000056          13
 phaser                                  0.000043          70
 proall                                  0.000039           3
 posmap                                  0.000030           2
 rotate_active_occupied_orbital          0.000029           3
 truncate_high_frequency_w1              0.000021          23
 set_dd_magatom                          0.000014           6
 vectorpot                               0.000013           1
 shift_bands_between_low_high            0.000007           5
 ---------------------------------------------------------------
  summed up times    1362.17065501213     
 
 Accumulative profile
 ====================
 
             routine name                   CPU           calls
 ---------------------------------------------------------------
 total_time                           1362.170655           1
 potlok                                861.573517          58
 elmin_all                             835.857907           3
 fft3d_mpi                             121.467303        5613
 fftbrc_mpi                            113.523147        5613
 fftbas_plan_mpi                       113.505763        5613
 set_charge                             68.540945          55
 dfftw_execute                          45.227253       16839
 force_and_stress                       43.703881           3
 m_alltoallv_z                          32.522689        5726
 map_forward                            32.519808        5696
 map_backward                           31.802995        5530
 ggaall_grid                            28.746497         157
 map_scatter                            16.653229        5726
 map_gather                             14.590526        5726
 m_sumb_d                                7.238395        3675
 fftwav_mpi                              5.325367         208
 edwav                                   4.194594          52
 soft_charge                             3.627886          55
 eddav                                   1.724252           5
 fftext_mpi                              1.503854          75
 augmentation_charge                     1.436407          55
 eddiag                                  1.145110          31
 rpro_isp                                1.042832          39
 kinhamil                                1.000421          49
 m_alltoall_d                            0.923824        1060
 fft_gq                                  0.859133          55
 strnlr                                  0.747902           3
 hamilt_local                            0.746921          31
 redis_pw                                0.680075         314
 hamiltmu                                0.451771          18
 set_dd_paw                              0.434018          61
 eccp                                    0.353538         109
 redis_proj                              0.328837         746
 m_bcast_d                               0.314670         125
 fornlr                                  0.272786           3
 pothar                                  0.229827          58
 forloc                                  0.224383           3
 vhamil                                  0.192623          49
 newband                                 0.177741          23
 wavpre_noio                             0.167059           2
 pw_charge                               0.165112          55
 orthch                                  0.144842          55
 stufak                                  0.117483           3
 depsum                                  0.113461          55
 proall                                  0.107524           3
 redis_pw_over_bands                     0.105377          57
 redis_pw_all                            0.105133          52
 lincom                                  0.094998         164
 m_bcast_z                               0.084442          17
 lapack                                  0.073489          18
 orth1                                   0.072622         135
 strelo                                  0.070714           3
 setdij_                                 0.070624         137
 densta                                  0.065279          66
 forhar                                  0.062640           3
 w1_dscal                                0.062089          26
 rspher_all                              0.054781          40
 strehar                                 0.046687           3
 inisym                                  0.042835           1
 w1_copy                                 0.015316          54
 ggemm                                   0.014696          18
 choleski                                0.014234          55
 racc0                                   0.013355          44
 fewald                                  0.012604           3
 rpromu                                  0.010715          39
 rpro1                                   0.008592          39
 fordep                                  0.006982           3
 raccmu_                                 0.004774          18
 rpromu_gemm                             0.004316         312
 overl                                   0.003924         169
 setup_precond                           0.003076           5
 w1_projall                              0.002953          13
 brgrid                                  0.002904           1
 strkin                                  0.002779           3
 apply_precond                           0.002681          13
 rsp                                     0.001887           3
 overl1                                  0.000314          18
 crpa_reader                             0.000238           1
 rcp                                     0.000148           3
 set_rsgf_all                            0.000134          61
 potlok_metagga                          0.000065          58
 phaser                                  0.000043          70
 posmap                                  0.000030           2
 rotate_active_occupied_orbital          0.000029           3
 truncate_high_frequency_w1              0.000021          23
 set_dd_magatom                          0.000014           6
 vectorpot                               0.000013           1
 shift_bands_between_low_high            0.000007           5
 ---------------------------------------------------------------
 
Profiling took   0.109120  0.035395  0.007582  0.006700 seconds
Profiling took   0.154233 seconds
