 vasp.6.3.2 27Jun22 (build Jan 03 2024 23:25:20) gamma-only                     
  
 executed on           IFC15_impi date 2024.06.05  05:01:46
 running  512 mpi-ranks, with    1 threads/rank
 distrk:  each k-point on  512 cores,    1 groups
 distr:  one band on NCORE=  32 cores,   16 groups


--------------------------------------------------------------------------------------------------------


 INCAR:
   ENCUT = 500.000000
   SIGMA = 0.010000
   EDIFF = 1.00e-05
   ALGO = A
   ISMEAR = 0
   NELM = 200
   NSW = 999
   NCORE = 32
   LCHARG = .TRUE.
   LWAVE = .TRUE.
   LREAL = Auto
   IBRION = 5
   POTIM = 0.015
   NFREE = 2
   ISYM = 0
   EDIFFG = -0.05
   GGA = BF
   LUSE_VDW = .TRUE.
   ZAB_VDW = -1.8867
   LBEEFENS = .TRUE.
   DIPOL = 0.5 0.5 0.65
   IDIPOL = 3
   LDIPOL = .TRUE.

 POTCAR:    PAW_PBE Au 04Oct2007                  
 POTCAR:    PAW_PBE O 08Apr2002                   
 POTCAR:    PAW_PBE Sr_sv 07Sep2000               
 POTCAR:    PAW_PBE Ti_sv 26Sep2005               
 POTCAR:    PAW_PBE H 15Jun2001                   
 -----------------------------------------------------------------------------
|                                                                             |
|               ----> ADVICE to this user running VASP <----                  |
|                                                                             |
|     You have switched on vdW-DFT.                                           |
|     This routine was written and supplied by Jiri Klimes. We recommend      |
|     that you carefully read and cite the following publications:            |
|       J. Klimes, D.R. Bowler, A. Michelides                                 |
|          J. Phys.: Cond Matt. 22 022201 (2010)                              |
|       J. Klimes, D.R. Bowler, A. Michelides                                 |
|          Phys. Rev. B. 83, 195131 (2011)                                    |
|     and references therein.                                                 |
|                                                                             |
 -----------------------------------------------------------------------------

 POTCAR:    PAW_PBE Au 04Oct2007                  
   SHA256 =  d0044ae04e2bdce24051b198fc5c053d722a5bc6fe3c3b100514a13fc5d2db88 Au/POTCAR             
   COPYR  = (c) Copyright 04Oct2007 Georg Kresse                                                    
   COPYR  = This file is part of the software VASP. Any use, copying, and all other rights are regul
   COPYR  = If you do not have a valid VASP license, you may not use, copy or distribute this file. 
   VRHFIN =Au: s1d10                                                                                
   LEXCH  = PE                                                                                      
   EATOM  =   926.0867 eV,   68.0654 Ry                                                             
                                                                                                    
   TITEL  = PAW_PBE Au 04Oct2007                                                                    
   LULTRA =        F    use ultrasoft PP ?                                                          
   IUNSCR =        1    unscreen: 0-lin 1-nonlin 2-no                                               
   RPACOR =    2.330    partial core radius                                                         
   POMASS =  196.966; ZVAL   =   11.000    mass and valenz                                          
   RCORE  =    2.500    outmost cutoff radius                                                       
   RWIGS  =    2.840; RWIGS  =    1.503    wigner-seitz radius (au A)                               
   ENMAX  =  229.943; ENMIN  =  172.457 eV                                                          
   ICORE  =        3    local potential                                                             
   LCOR   =        T    correct aug charges                                                         
   LPAW   =        T    paw PP                                                                      
   EAUG   =  356.670                                                                                
   DEXC   =    0.000                                                                                
   RMAX   =    2.562    core radius for proj-oper                                                   
   RAUG   =    1.300    factor for augmentation sphere                                              
   RDEP   =    2.598    radius for radial grids                                                     
   RDEPT  =    2.193    core radius for aug-charge                                                  
                                                                                                    
   Atomic configuration                                                                             
   16 entries                                                                                       
     n  l   j            E        occ.                                                              
     1  0  0.50    -80748.5001   2.0000                                                             
     2  0  0.50    -14244.7466   2.0000                                                             
     2  1  1.50    -12310.9591   6.0000                                                             
     3  0  0.50     -3362.1768   2.0000                                                             
     3  1  1.50     -2801.5463   6.0000                                                             
     3  2  2.50     -2203.8206  10.0000                                                             
     4  0  0.50      -729.8168   2.0000                                                             
     4  1  1.50      -546.0527   6.0000                                                             
     4  2  2.50      -325.7302  10.0000                                                             
     4  3  3.50       -81.1472  14.0000                                                             
     5  0  0.50      -108.3201   2.0000                                                             
     5  1  1.50       -59.7479   6.0000                                                             
     5  2  2.50        -6.8783  10.0000                                                             
     6  0  0.50        -5.7602   1.0000                                                             
     6  1  1.50        -6.8029   0.0000                                                             
     5  3  2.50        -1.3606   0.0000                                                             
   Description                                                                                      
     l       E           TYP  RCUT    TYP  RCUT                                                     
     2     -6.8782861     23  2.500                                                                 
     2     -8.2388687     23  2.500                                                                 
     0     -5.7601759     23  2.500                                                                 
     0     -0.8493231     23  2.500                                                                 
     1     -2.7211652     23  2.500                                                                 
     1     27.2116520     23  2.500                                                                 
     3     -1.3605826     23  2.500                                                                 
  local pseudopotential read in
  partial core-charges read in
  partial kinetic energy density read in
  atomic valenz-charges read in
  non local Contribution for L=           2  read in
    real space projection operators read in
  non local Contribution for L=           2  read in
    real space projection operators read in
  non local Contribution for L=           0  read in
    real space projection operators read in
  non local Contribution for L=           0  read in
    real space projection operators read in
  non local Contribution for L=           1  read in
    real space projection operators read in
  non local Contribution for L=           1  read in
    real space projection operators read in
    PAW grid and wavefunctions read in
 
   number of l-projection  operators is LMAX  =           6
   number of lm-projection operators is LMMAX =          18
 
 POTCAR:    PAW_PBE O 08Apr2002                   
   SHA256 =  818f92134a0a090dccd8ba1447fa70422a3b330e708bb4f08108d8ae51209ddf O/POTCAR              
   COPYR  = (c) Copyright 08Apr2002 Georg Kresse                                                    
   COPYR  = This file is part of the software VASP. Any use, copying, and all other rights are regul
   COPYR  = If you do not have a valid VASP license, you may not use, copy or distribute this file. 
   VRHFIN =O: s2p4                                                                                  
   LEXCH  = PE                                                                                      
   EATOM  =   432.3788 eV,   31.7789 Ry                                                             
                                                                                                    
   TITEL  = PAW_PBE O 08Apr2002                                                                     
   LULTRA =        F    use ultrasoft PP ?                                                          
   IUNSCR =        1    unscreen: 0-lin 1-nonlin 2-no                                               
   RPACOR =    1.200    partial core radius                                                         
   POMASS =   16.000; ZVAL   =    6.000    mass and valenz                                          
   RCORE  =    1.520    outmost cutoff radius                                                       
   RWIGS  =    1.550; RWIGS  =    0.820    wigner-seitz radius (au A)                               
   ENMAX  =  400.000; ENMIN  =  300.000 eV                                                          
   ICORE  =        2    local potential                                                             
   LCOR   =        T    correct aug charges                                                         
   LPAW   =        T    paw PP                                                                      
   EAUG   =  605.392                                                                                
   DEXC   =    0.000                                                                                
   RMAX   =    1.553    core radius for proj-oper                                                   
   RAUG   =    1.300    factor for augmentation sphere                                              
   RDEP   =    1.550    radius for radial grids                                                     
   RDEPT  =    1.329    core radius for aug-charge                                                  
                                                                                                    
   Atomic configuration                                                                             
    4 entries                                                                                       
     n  l   j            E        occ.                                                              
     1  0  0.50      -514.6923   2.0000                                                             
     2  0  0.50       -23.9615   2.0000                                                             
     2  1  0.50        -9.0305   4.0000                                                             
     3  2  1.50        -9.5241   0.0000                                                             
   Description                                                                                      
     l       E           TYP  RCUT    TYP  RCUT                                                     
     0    -23.9615318     23  1.200                                                                 
     0     -9.5240782     23  1.200                                                                 
     1     -9.0304911     23  1.520                                                                 
     1      8.1634956     23  1.520                                                                 
     2     -9.5240782      7  1.500                                                                 
  local pseudopotential read in
  partial core-charges read in
  partial kinetic energy density read in
  kinetic energy density of atom read in
  atomic valenz-charges read in
  non local Contribution for L=           0  read in
    real space projection operators read in
  non local Contribution for L=           0  read in
    real space projection operators read in
  non local Contribution for L=           1  read in
    real space projection operators read in
  non local Contribution for L=           1  read in
    real space projection operators read in
    PAW grid and wavefunctions read in
 
   number of l-projection  operators is LMAX  =           4
   number of lm-projection operators is LMMAX =           8
 
 POTCAR:    PAW_PBE Sr_sv 07Sep2000               
   SHA256 =  a8389d3481648516ee67182ee030b298d280b37e29cbbf2d8595f040d757c710 Sr_sv/POTCAR          
   COPYR  = (c) Copyright 07Sep2000 Georg Kresse                                                    
   COPYR  = This file is part of the software VASP. Any use, copying, and all other rights are regul
   COPYR  = If you do not have a valid VASP license, you may not use, copy or distribute this file. 
   VRHFIN =Sr: 4s4p5s                                                                               
   LEXCH  = PE                                                                                      
   EATOM  =   843.0319 eV,   61.9611 Ry                                                             
                                                                                                    
   TITEL  = PAW_PBE Sr_sv 07Sep2000                                                                 
   LULTRA =        F    use ultrasoft PP ?                                                          
   IUNSCR =        1    unscreen: 0-lin 1-nonlin 2-no                                               
   RPACOR =    2.200    partial core radius                                                         
   POMASS =   87.620; ZVAL   =   10.000    mass and valenz                                          
   RCORE  =    2.500    outmost cutoff radius                                                       
   RWIGS  =    4.040; RWIGS  =    2.138    wigner-seitz radius (au A)                               
   ENMAX  =  229.353; ENMIN  =  172.014 eV                                                          
   RCLOC  =    2.201    cutoff for local pot                                                        
   LCOR   =        T    correct aug charges                                                         
   LPAW   =        T    paw PP                                                                      
   EAUG   =  366.804                                                                                
   DEXC   =    0.000                                                                                
   RMAX   =    2.547    core radius for proj-oper                                                   
   RAUG   =    1.300    factor for augmentation sphere                                              
   RDEP   =    2.562    radius for radial grids                                                     
   RDEPT  =    2.128    core radius for aug-charge                                                  
                                                                                                    
   Atomic configuration                                                                             
   10 entries                                                                                       
     n  l   j            E        occ.                                                              
     1  0  0.50    -15934.8930   2.0000                                                             
     2  0  0.50     -2157.6250   2.0000                                                             
     2  1  1.50     -1917.0034   6.0000                                                             
     3  0  0.50      -333.7288   2.0000                                                             
     3  1  1.50      -256.0992   6.0000                                                             
     3  2  2.50      -127.9971  10.0000                                                             
     4  0  0.50       -40.8953   2.0000                                                             
     5  0  0.50        -3.5257   1.9990                                                             
     4  1  1.50       -22.8179   6.0000                                                             
     4  2  1.50        -1.2815   0.0010                                                             
   Description                                                                                      
     l       E           TYP  RCUT    TYP  RCUT                                                     
     0    -40.8953213     23  2.480                                                                 
     0     -3.5257161     23  2.480                                                                 
     1    -22.8178632     23  2.500                                                                 
     1    -24.1784458     23  2.500                                                                 
     2     -1.2814598     23  2.500                                                                 
     2      0.2279365     23  2.500                                                                 
  local pseudopotential read in
  partial core-charges read in
  partial kinetic energy density read in
  atomic valenz-charges read in
  non local Contribution for L=           0  read in
    real space projection operators read in
  non local Contribution for L=           0  read in
    real space projection operators read in
  non local Contribution for L=           1  read in
    real space projection operators read in
  non local Contribution for L=           1  read in
    real space projection operators read in
  non local Contribution for L=           2  read in
    real space projection operators read in
  non local Contribution for L=           2  read in
    real space projection operators read in
    PAW grid and wavefunctions read in
 
   number of l-projection  operators is LMAX  =           6
   number of lm-projection operators is LMMAX =          18
 
 POTCAR:    PAW_PBE Ti_sv 26Sep2005               
   SHA256 =  4d747badb5a5ea28d858fbac70885b3f8929d6fd9e5b0dbe1ecb9878dc164da1 Ti_sv/POTCAR          
   COPYR  = (c) Copyright 26Sep2005 Georg Kresse                                                    
   COPYR  = This file is part of the software VASP. Any use, copying, and all other rights are regul
   COPYR  = If you do not have a valid VASP license, you may not use, copy or distribute this file. 
   VRHFIN =Ti: 3p4s3d                                                                               
   LEXCH  = PE                                                                                      
   EATOM  =  1588.0892 eV,  116.7213 Ry                                                             
                                                                                                    
   TITEL  = PAW_PBE Ti_sv 26Sep2005                                                                 
   LULTRA =        F    use ultrasoft PP ?                                                          
   IUNSCR =        1    unscreen: 0-lin 1-nonlin 2-no                                               
   RPACOR =    2.000    partial core radius                                                         
   POMASS =   47.880; ZVAL   =   12.000    mass and valenz                                          
   RCORE  =    2.300    outmost cutoff radius                                                       
   RWIGS  =    2.300; RWIGS  =    1.217    wigner-seitz radius (au A)                               
   ENMAX  =  274.610; ENMIN  =  205.957 eV                                                          
   ICORE  =        3    local potential                                                             
   LCOR   =        T    correct aug charges                                                         
   LPAW   =        T    paw PP                                                                      
   EAUG   =  482.848                                                                                
   RMAX   =    2.348    core radius for proj-oper                                                   
   RAUG   =    1.300    factor for augmentation sphere                                              
   RDEP   =    2.381    radius for radial grids                                                     
   RDEPT  =    1.930    core radius for aug-charge                                                  
                                                                                                    
   Atomic configuration                                                                             
    8 entries                                                                                       
     n  l   j            E        occ.                                                              
     1  0  0.50     -4865.3608   2.0000                                                             
     2  0  0.50      -533.1368   2.0000                                                             
     2  1  1.50      -440.5031   6.0000                                                             
     3  0  0.50       -59.3186   2.0000                                                             
     4  0  0.50        -3.7291   1.0000                                                             
     3  1  1.50       -35.7012   6.0000                                                             
     3  2  2.50        -1.9157   3.0000                                                             
     4  3  2.50        -1.3606   0.0000                                                             
   Description                                                                                      
     l       E           TYP  RCUT    TYP  RCUT                                                     
     0    -59.3185931     23  1.800                                                                 
     0     -3.7290822     23  2.300                                                                 
     1    -35.7012045     23  2.300                                                                 
     1     -1.3605826     23  2.300                                                                 
     2     -1.9156920     23  2.300                                                                 
     2     -0.0236318     23  2.300                                                                 
     3     -1.3605826     23  2.300                                                                 
  local pseudopotential read in
  partial core-charges read in
  partial kinetic energy density read in
  atomic valenz-charges read in
  non local Contribution for L=           0  read in
    real space projection operators read in
  non local Contribution for L=           0  read in
    real space projection operators read in
  non local Contribution for L=           1  read in
    real space projection operators read in
  non local Contribution for L=           1  read in
    real space projection operators read in
  non local Contribution for L=           2  read in
    real space projection operators read in
  non local Contribution for L=           2  read in
    real space projection operators read in
    PAW grid and wavefunctions read in
 
   number of l-projection  operators is LMAX  =           6
   number of lm-projection operators is LMMAX =          18
 
 POTCAR:    PAW_PBE H 15Jun2001                   
   SHA256 =  030f79b5d3ab3cf0e668861823c8fb652ff669f3e15e46930bd03bfd63a607b6 H/POTCAR              
   COPYR  = (c) Copyright 15Jun2001 Georg Kresse                                                    
   COPYR  = This file is part of the software VASP. Any use, copying, and all other rights are regul
   COPYR  = If you do not have a valid VASP license, you may not use, copy or distribute this file. 
   VRHFIN =H: ultrasoft test                                                                        
   LEXCH  = PE                                                                                      
   EATOM  =    12.4884 eV,    0.9179 Ry                                                             
                                                                                                    
   TITEL  = PAW_PBE H 15Jun2001                                                                     
   LULTRA =        F    use ultrasoft PP ?                                                          
   IUNSCR =        0    unscreen: 0-lin 1-nonlin 2-no                                               
   RPACOR =    0.000    partial core radius                                                         
   POMASS =    1.000; ZVAL   =    1.000    mass and valenz                                          
   RCORE  =    1.100    outmost cutoff radius                                                       
   RWIGS  =    0.700; RWIGS  =    0.370    wigner-seitz radius (au A)                               
   ENMAX  =  250.000; ENMIN  =  200.000 eV                                                          
   RCLOC  =    0.701    cutoff for local pot                                                        
   LCOR   =        T    correct aug charges                                                         
   LPAW   =        T    paw PP                                                                      
   EAUG   =  400.000                                                                                
   RMAX   =    1.123    core radius for proj-oper                                                   
   RAUG   =    1.200    factor for augmentation sphere                                              
   RDEP   =    1.112    radius for radial grids                                                     
   RDEPT  =    0.926    core radius for aug-charge                                                  
                                                                                                    
   Atomic configuration                                                                             
    2 entries                                                                                       
     n  l   j            E        occ.                                                              
     1  0  0.50        -6.4927   1.0000                                                             
     2  1  0.50        -3.4015   0.0000                                                             
   Description                                                                                      
     l       E           TYP  RCUT    TYP  RCUT                                                     
     0     -6.4927494     23  1.100                                                                 
     0      6.8029130     23  1.100                                                                 
     1     -4.0817478     23  1.100                                                                 
  local pseudopotential read in
  atomic valenz-charges read in
  non local Contribution for L=           0  read in
    real space projection operators read in
  non local Contribution for L=           0  read in
    real space projection operators read in
  non local Contribution for L=           1  read in
    real space projection operators read in
    PAW grid and wavefunctions read in
 
   number of l-projection  operators is LMAX  =           3
   number of lm-projection operators is LMMAX =           5
 
 Optimization of the real space projectors (new method)

 maximal supplied QI-value         = 15.12
 optimisation between [QCUT,QGAM] = [ 11.34, 22.83] = [ 36.00,145.93] Ry 
 Optimized for a Real-space Cutoff    1.39 Angstroem

   l    n(q)    QCUT    max X(q) W(low)/X(q) W(high)/X(q)  e(spline) 
   2      9    11.338    60.898    0.39E-03    0.42E-03    0.21E-06
   2      9    11.338    58.894    0.40E-03    0.42E-03    0.22E-06
   0      9    11.338   109.617    0.13E-03    0.20E-04    0.13E-06
   0      9    11.338    75.026    0.13E-03    0.20E-04    0.13E-06
   1      9    11.338    16.344    0.33E-04    0.24E-03    0.18E-06
   1      9    11.338    10.160    0.26E-04    0.19E-03    0.15E-06
 Optimization of the real space projectors (new method)

 maximal supplied QI-value         = 24.76
 optimisation between [QCUT,QGAM] = [ 11.39, 22.77] = [ 36.31,145.25] Ry 
 Optimized for a Real-space Cutoff    1.00 Angstroem

   l    n(q)    QCUT    max X(q) W(low)/X(q) W(high)/X(q)  e(spline) 
   0      7    11.387    20.381    0.39E-03    0.13E-02    0.15E-06
   0      7    11.387    15.268    0.42E-03    0.14E-02    0.17E-06
   1      6    11.387     5.964    0.41E-03    0.11E-02    0.17E-06
   1      6    11.387     5.382    0.39E-03    0.87E-03    0.15E-06
 Optimization of the real space projectors (new method)

 maximal supplied QI-value         = 15.12
 optimisation between [QCUT,QGAM] = [ 11.34, 22.83] = [ 36.00,145.93] Ry 
 Optimized for a Real-space Cutoff    1.56 Angstroem

   l    n(q)    QCUT    max X(q) W(low)/X(q) W(high)/X(q)  e(spline) 
   0     11    11.338    11.565    0.26E-04    0.80E-05    0.70E-07
   0     11    11.338    10.214    0.41E-04    0.15E-04    0.15E-06
   1     10    11.338   189.983    0.18E-03    0.52E-04    0.42E-06
   1     10    11.338   193.105    0.19E-03    0.52E-04    0.42E-06
   2     10    11.338   115.941    0.22E-03    0.42E-03    0.43E-06
   2     10    11.338    76.444    0.21E-03    0.41E-03    0.42E-06
 Optimization of the real space projectors (new method)

 maximal supplied QI-value         = 16.25
 optimisation between [QCUT,QGAM] = [ 11.38, 22.75] = [ 36.24,144.96] Ry 
 Optimized for a Real-space Cutoff    1.27 Angstroem

   l    n(q)    QCUT    max X(q) W(low)/X(q) W(high)/X(q)  e(spline) 
   0      9    11.376    12.277    0.53E-04    0.25E-04    0.25E-07
   0      9    11.376    11.419    0.89E-04    0.67E-05    0.35E-07
   1      8    11.376     4.010    0.13E-03    0.11E-03    0.29E-07
   1      8    11.376     6.182    0.94E-04    0.19E-03    0.11E-06
   2      8    11.376    47.177    0.13E-03    0.88E-03    0.24E-06
   2      8    11.376    42.437    0.13E-03    0.86E-03    0.23E-06
 Optimization of the real space projectors (new method)

 maximal supplied QI-value         = 34.20
 optimisation between [QCUT,QGAM] = [ 11.29, 22.57] = [ 35.68,142.71] Ry 
 Optimized for a Real-space Cutoff    1.16 Angstroem

   l    n(q)    QCUT    max X(q) W(low)/X(q) W(high)/X(q)  e(spline) 
   0      8    11.287    19.460    0.40E-03    0.73E-03    0.16E-06
   0      8    11.287    12.209    0.38E-03    0.70E-03    0.15E-06
   1      7    11.287     4.655    0.22E-03    0.25E-04    0.22E-06
 -----------------------------------------------------------------------------
|                                                                             |
|               ----> ADVICE to this user running VASP <----                  |
|                                                                             |
|     You enforced a specific xc type in the INCAR file but a different       |
|     type was found in the POTCAR file.                                      |
|     I HOPE YOU KNOW WHAT YOU ARE DOING!                                     |
|                                                                             |
 -----------------------------------------------------------------------------

  PAW_PBE Au 04Oct2007                  :
 energy of atom  1       EATOM= -926.0867
 kinetic energy error for atom=    0.0042 (will be added to EATOM!!)
  PAW_PBE O 08Apr2002                   :
 energy of atom  2       EATOM= -432.3788
 kinetic energy error for atom=    0.0224 (will be added to EATOM!!)
  PAW_PBE Sr_sv 07Sep2000               :
 energy of atom  3       EATOM= -843.0319
 kinetic energy error for atom=    0.0012 (will be added to EATOM!!)
  PAW_PBE Ti_sv 26Sep2005               :
 energy of atom  4       EATOM=-1588.0892
 kinetic energy error for atom=    0.0046 (will be added to EATOM!!)
  PAW_PBE H 15Jun2001                   :
 energy of atom  5       EATOM=  -12.4884
 kinetic energy error for atom=    0.0020 (will be added to EATOM!!)
 
 
 POSCAR: Au O  Sr Ti H
  positions in cartesian coordinates
  No initial velocities read in
 exchange correlation table for  LEXCH =       17
   RHO(1)=    0.500       N(1)  =     2000
   RHO(2)=  100.500       N(2)  =     4000

 VTST: version 4.1, (05/19/21)

 CHAIN: initializing optimizer
 
 OPT: Using VASP Dynamics algorithm
 CHAIN: Read ICHAIN            0
 
 POSCAR: Au O  Sr Ti H
  positions in cartesian coordinates
  No initial velocities read in
 


--------------------------------------------------------------------------------------------------------


 ion  position               nearest neighbor table
   1  0.719  0.527  0.754-  15 2.72  16 2.73  14 2.78   2 2.82  44 2.84  29 2.94  46 3.08
   2  0.626  0.566  0.704- 264 2.08  15 2.81   1 2.82  46 2.86  48 2.88  16 2.93  12 2.93  36 3.08
                            11 3.28   5 3.57 380 3.70
   3  0.719  0.259  0.692- 294 2.06 253 2.07  32 2.65  43 2.79  27 2.82 401 3.05 370 4.03 371 4.05

   4  0.291  0.747  0.699- 310 2.07 266 2.07   9 2.78  23 2.82  50 3.05  42 3.40  45 3.52 372 4.25
                           368 4.27
   5  0.513  0.604  0.777-  26 2.69  48 2.75  13 2.85  47 2.91  12 2.92  39 2.93  16 3.02   6 3.12
                            49 3.41  31 3.45   2 3.57
   6  0.576  0.724  0.792-  18 2.73  36 2.74  17 2.78  47 2.82  13 2.97  48 3.12   5 3.12  16 3.46

   7  0.552  0.384  0.830-  10 2.78  33 2.84  20 2.86  29 2.86  31 2.95  34 3.00  12 3.05  41 3.42

   8  0.241  0.469  0.709- 309 2.10  19 2.68  24 2.81  45 2.84  40 2.96  35 3.29 378 4.16
   9  0.282  0.662  0.766-  45 2.69  30 2.76  50 2.76   4 2.78  24 2.80
  10  0.602  0.287  0.787-  41 2.77   7 2.78  32 2.80  27 2.81  43 2.82  25 3.05  34 3.25
  11  0.515  0.484  0.678- 279 2.11 247 2.16  26 2.70  12 2.77 264 2.78  49 2.87  34 2.92 389 3.12
                             2 3.28  46 3.34  37 3.54 375 3.55 386 4.04
  12  0.562  0.486  0.762-  11 2.77  34 2.78  49 2.86  29 2.86  31 2.87   5 2.92   2 2.93  16 2.99
                            46 3.01   7 3.05
  13  0.463  0.696  0.830-  50 2.81  30 2.85   5 2.85  47 2.86  18 2.92  39 2.93   6 2.97
  14  0.765  0.432  0.706- 254 2.01  44 2.72   1 2.78  46 2.78  43 2.90 363 3.73 370 4.24
  15  0.734  0.616  0.694- 250 2.09 292 2.09  36 2.67   1 2.72   2 2.81  28 3.22 380 3.42 365 3.72

  16  0.635  0.583  0.800-   1 2.73  36 2.78  47 2.79  31 2.81   2 2.93  12 2.99   5 3.02  29 3.18
                             6 3.46
  17  0.595  0.785  0.713- 257 2.08   6 2.78  28 2.79  18 2.94  48 2.94  36 3.12 379 4.18 384 4.33

  18  0.484  0.781  0.757-   6 2.73  23 2.82  42 2.85  50 2.87  13 2.92  17 2.94  48 3.42
  19  0.348  0.503  0.697- 291 2.10   8 2.68  49 2.88  24 2.89  37 2.94  40 2.97  45 2.98  26 3.06
                           368 4.09 369 4.27
  20  0.433  0.373  0.815-  33 2.78  21 2.81   7 2.86  49 2.90  41 2.92  40 3.01  38 3.02  34 3.15

  21  0.374  0.298  0.756- 459 2.16  20 2.81  41 2.81  37 2.81  35 2.82  22 2.83  40 2.88
  22  0.441  0.228  0.697- 302 2.01 289 2.14  41 2.73  25 2.81  21 2.83  37 3.59 376 3.89 367 4.35

  23  0.390  0.817  0.706- 290 2.08  42 2.77  50 2.79   4 2.82  18 2.82 372 3.64 384 4.13
  24  0.290  0.537  0.778-   9 2.80   8 2.81  38 2.82  40 2.88  30 2.89  45 2.89  19 2.89
  25  0.556  0.209  0.712- 311 2.13  22 2.81  41 2.84  27 2.85  32 2.87  10 3.05 376 3.95
  26  0.454  0.581  0.702- 291 2.11   5 2.69  11 2.70  42 2.74  49 2.86  48 2.87  19 3.06 386 3.59

  27  0.615  0.319  0.697- 263 2.03  43 2.75  10 2.81   3 2.82  46 2.83  34 2.85  25 2.85  32 3.48
                           370 3.57 375 4.24
  28  0.705  0.757  0.688- 293 2.05 250 2.06  36 2.64  17 2.79 400 3.13  15 3.22 379 3.81 380 4.18

  29  0.657  0.443  0.812-  44 2.84  31 2.86  12 2.86   7 2.86  43 2.92   1 2.94  16 3.18  46 3.48

  30  0.367  0.620  0.820-   9 2.76  39 2.78  13 2.85  38 2.86  24 2.89  50 2.94
  31  0.570  0.510  0.856-  33 2.77  16 2.81  29 2.86  12 2.87  47 2.90  39 2.93   7 2.95   5 3.45

  32  0.666  0.192  0.752-   3 2.65  10 2.80  25 2.87  27 3.48  43 3.53
  33  0.472  0.450  0.880-  31 2.77  20 2.78  39 2.80  38 2.84   7 2.84
  34  0.518  0.377  0.734-  12 2.78  41 2.81  27 2.85  49 2.88  11 2.92   7 3.00  37 3.05  20 3.15
                            10 3.25  46 3.57 375 4.18
  35  0.278  0.327  0.706- 459 1.65 267 2.03  21 2.82  40 2.97  37 3.22   8 3.29 369 3.72 378 4.10

  36  0.670  0.681  0.749-  28 2.64  15 2.67   6 2.74  16 2.78   2 3.08  17 3.12  48 3.26
  37  0.401  0.383  0.691- 303 2.03 289 2.11  21 2.81  49 2.93  19 2.94  40 3.02  34 3.05  35 3.22
                           369 3.44  11 3.54  22 3.59 375 3.75
  38  0.378  0.493  0.832-  24 2.82  49 2.83  40 2.83  39 2.84  33 2.84  30 2.86  20 3.02
  39  0.462  0.573  0.863-  30 2.78  33 2.80  47 2.83  38 2.84  13 2.93   5 2.93  31 2.93
  40  0.326  0.415  0.769- 459 2.14  38 2.83  21 2.88  24 2.88   8 2.96  35 2.97  19 2.97  20 3.01
                            37 3.02  49 3.08
  41  0.487  0.269  0.775-  22 2.73  10 2.77  21 2.81  34 2.81  25 2.84  20 2.92   7 3.42
  42  0.427  0.700  0.699- 256 2.03  26 2.74  23 2.77  50 2.82  18 2.85  48 2.94   4 3.40 386 4.00
                           368 4.16
  43  0.699  0.346  0.757-  27 2.75   3 2.79  10 2.82  44 2.82  14 2.90  29 2.92  46 3.02  32 3.53

  44  0.774  0.429  0.796-  14 2.72  43 2.82  29 2.84   1 2.84
  45  0.256  0.593  0.695- 265 2.03 310 2.10   9 2.69   8 2.84  24 2.89  19 2.98   4 3.52 368 3.58
                           373 3.70
  46  0.648  0.440  0.697- 279 2.19  14 2.78  27 2.83   2 2.86  12 3.01  43 3.02   1 3.08  11 3.34
                            29 3.48 370 3.48  34 3.57
  47  0.564  0.639  0.861-  16 2.79   6 2.82  39 2.83  13 2.86  31 2.90   5 2.91
  48  0.547  0.664  0.702- 280 2.11   5 2.75  26 2.87   2 2.88  42 2.94  17 2.94   6 3.12  36 3.26
                            18 3.42 386 3.50
  49  0.442  0.474  0.754-  38 2.83  12 2.86  26 2.86  11 2.87  34 2.88  19 2.88  20 2.90  37 2.93
                            40 3.08   5 3.41
  50  0.373  0.738  0.777-   9 2.76  23 2.79  13 2.81  42 2.82  18 2.87  30 2.94   4 3.05
  51  0.250  0.189  0.454- 448 1.97 418 2.13 319 2.73 360 2.81 342 2.82 327 2.85
  52  0.749  0.938  0.455- 417 1.95 444 2.00 350 2.82 339 2.84 322 2.84 332 2.88
  53  0.749  0.689  0.457- 432 1.97 446 2.04 325 2.78 362 2.84 348 2.84 316 2.88
  54  0.749  0.438  0.456- 422 1.99 458 2.01 323 2.71 347 2.83 359 2.84 349 2.85
  55  0.750  0.190  0.456- 445 1.98 423 2.11 324 2.75 335 2.80 358 2.85 346 2.85
  56  0.417  0.936  0.454- 424 2.00 440 2.01 357 2.76 345 2.79 329 2.87 320 2.92
  57  0.417  0.685  0.455- 414 1.91 443 2.04 356 2.77 344 2.78 321 2.84 331 2.91
  58  0.417  0.435  0.454- 415 1.96 442 2.02 355 2.77 343 2.78 333 2.82 318 2.85
  59  0.084  0.687  0.453- 439 1.97 413 2.10 352 2.76 340 2.80 330 2.81 336 2.93
  60  0.084  0.937  0.453- 436 1.98 412 2.11 353 2.77 341 2.79 326 2.89 338 2.91
  61  0.083  0.437  0.453- 438 1.97 421 2.11 361 2.77 351 2.78 328 2.79 317 2.92
  62  0.084  0.187  0.453- 437 1.98 433 2.12 360 2.76 385 2.78 327 2.88 337 2.89
  63  0.917  0.812  0.454- 434 1.98 411 2.12 362 2.75 339 2.80 341 2.81 336 2.87
  64  0.916  0.562  0.454- 435 1.98 410 2.11 349 2.78 316 2.79 340 2.80 317 2.90
  65  0.251  0.439  0.455- 449 1.98 420 2.07 318 2.69 343 2.81 328 2.85 351 2.86
  66  0.916  0.062  0.454- 455 1.98 430 2.11 358 2.79 385 2.81 332 2.85 338 2.89
  67  0.916  0.312  0.454- 456 1.98 429 2.09 359 2.79 361 2.80 335 2.81 337 2.90
  68  0.417  0.187  0.454- 441 1.98 416 2.07 354 2.78 342 2.80 334 2.81 319 2.88
  69  0.252  0.687  0.456- 419 1.99 450 2.03 321 2.75 344 2.79 352 2.87 330 2.90
  70  0.917  0.937  0.453- 455 1.98 411 2.11 341 2.78 339 2.78 332 2.90 338 2.90
  71  0.583  0.189  0.455- 452 1.98 426 2.09 334 2.72 324 2.79 354 2.82 346 2.84
  72  0.000  0.125  0.498- 430 1.97 433 1.98 385 2.74 337 2.79 338 2.80
  73  0.584  0.810  0.455- 454 1.98 431 2.10 325 2.72 331 2.76 350 2.84 357 2.85
  74  0.000  0.373  0.499- 429 1.94 421 1.96 361 2.75 337 2.77 317 2.85
  75  1.000  0.627  0.498- 413 1.93 410 1.94 340 2.72 336 2.77 317 2.84
  76  0.334  0.125  0.498- 416 1.96 418 2.01 319 2.74 342 2.74 320 2.79 367 3.45
  77  0.000  0.875  0.500- 412 1.97 411 1.97 341 2.78 336 2.78 338 2.80
  78  0.334  0.874  0.499- 424 1.97 425 2.00 321 2.74 345 2.76 320 2.85 372 3.13
  79  0.666  0.126  0.499- 426 1.96 423 2.02 324 2.72 346 2.77 322 2.81 371 3.38
  80  0.336  0.625  0.504- 414 1.92 419 2.09 368 2.73 321 2.81 318 2.81 344 2.92
  81  0.334  0.378  0.503- 415 1.94 420 2.08 318 2.70 369 2.72 343 2.88 319 2.92
  82  0.666  0.379  0.503- 428 1.94 422 2.06 323 2.70 370 2.73 347 2.89 324 2.92
  83  0.915  0.687  0.453- 434 1.97 410 2.10 316 2.75 340 2.80 362 2.80 336 2.93
  84  0.916  0.437  0.454- 435 1.98 429 2.10 359 2.78 349 2.78 361 2.80 317 2.92
  85  0.916  0.187  0.453- 456 1.97 430 2.12 358 2.76 335 2.79 385 2.79 337 2.92
  86  0.583  0.936  0.454- 451 2.00 431 2.06 357 2.77 350 2.79 329 2.86 322 2.89
  87  0.583  0.686  0.455- 427 1.91 454 2.02 356 2.78 348 2.80 325 2.83 331 2.86
  88  0.583  0.439  0.456- 453 2.00 428 2.02 333 2.71 323 2.79 355 2.84 347 2.86
  89  0.250  0.936  0.454- 425 1.94 447 2.01 353 2.78 345 2.78 320 2.90 326 2.92
  90  0.665  0.626  0.503- 427 1.93 432 2.06 380 2.71 325 2.81 323 2.82 348 2.88
  91  0.585  0.562  0.455- 427 1.99 453 2.01 333 2.78 348 2.79 323 2.79 356 2.83
  92  0.583  0.062  0.455- 451 2.00 426 2.02 354 2.80 346 2.82 322 2.85 329 2.85
  93  0.917  0.687  0.361- 434 1.97 340 2.79 316 2.79
  94  0.917  0.437  0.361- 435 1.97 361 2.79 359 2.79
  95  0.917  0.188  0.361- 456 1.97 385 2.79 358 2.79
  96  0.583  0.938  0.361- 451 1.97 357 2.79 350 2.79
  97  0.583  0.687  0.361- 454 1.97 356 2.79 348 2.79
  98  0.583  0.437  0.361- 453 1.97 355 2.79 347 2.79
  99  0.583  0.188  0.361- 452 1.97 354 2.79 346 2.79
 100  0.250  0.938  0.361- 447 1.97 353 2.79 345 2.79
 101  0.917  0.938  0.361- 455 1.97 341 2.79 339 2.79
 102  0.250  0.687  0.361- 450 1.97 352 2.79 344 2.79
 103  0.250  0.188  0.361- 448 1.97 360 2.79 342 2.79
 104  0.750  0.938  0.361- 444 1.97 350 2.79 339 2.79
 105  0.750  0.687  0.361- 446 1.97 348 2.79 316 2.79
 106  0.750  0.437  0.361- 458 1.97 347 2.79 359 2.79
 107  0.750  0.188  0.361- 445 1.97 346 2.79 358 2.79
 108  0.417  0.938  0.361- 440 1.97 345 2.79 357 2.79
 109  0.417  0.687  0.361- 443 1.97 344 2.79 356 2.79
 110  0.417  0.437  0.361- 442 1.97 343 2.79 355 2.79
 111  0.250  0.437  0.361- 449 1.97 351 2.79 343 2.79
 112  0.083  0.063  0.361- 436 1.97 385 2.79 360 2.79
 113  0.083  0.312  0.361- 437 1.97 361 2.79 351 2.79
 114  0.083  0.563  0.361- 438 1.97 352 2.79 340 2.79
 115  0.917  0.312  0.361- 456 1.97 361 2.79 359 2.79
 116  0.917  0.063  0.361- 455 1.97 385 2.79 358 2.79
 117  0.583  0.812  0.361- 454 1.97 357 2.79 350 2.79
 118  0.583  0.563  0.361- 453 1.97 356 2.79 348 2.79
 119  0.583  0.312  0.361- 452 1.97 355 2.79 347 2.79
 120  0.583  0.063  0.361- 451 1.97 354 2.79 346 2.79
 121  0.250  0.812  0.361- 450 1.97 353 2.79 345 2.79
 122  0.250  0.563  0.361- 449 1.97 352 2.79 344 2.79
 123  0.250  0.312  0.361- 448 1.97 351 2.79 343 2.79
 124  0.250  0.063  0.361- 447 1.97 360 2.79 342 2.79
 125  0.750  0.812  0.361- 446 1.97 350 2.79 339 2.79
 126  0.750  0.563  0.361- 458 1.97 348 2.79 316 2.79
 127  0.750  0.312  0.361- 445 1.97 347 2.79 359 2.79
 128  0.750  0.063  0.361- 444 1.97 346 2.79 358 2.79
 129  0.417  0.812  0.361- 443 1.97 345 2.79 357 2.79
 130  0.417  0.563  0.361- 442 1.97 344 2.79 356 2.79
 131  0.417  0.312  0.361- 441 1.97 343 2.79 355 2.79
 132  0.417  0.063  0.361- 440 1.97 342 2.79 354 2.79
 133  0.083  0.812  0.361- 439 1.97 353 2.79 341 2.79
 134  0.417  0.188  0.361- 441 1.97 342 2.79 354 2.79
 135  0.083  0.938  0.361- 436 1.97 353 2.79 341 2.79
 136  0.083  0.687  0.361- 439 1.97 352 2.79 340 2.79
 137  0.083  0.437  0.361- 438 1.97 361 2.79 351 2.79
 138  0.833  0.500  0.407- 458 1.97 435 1.97 316 2.79 359 2.79 349 2.88
 139  0.833  0.750  0.407- 446 1.97 434 1.97 339 2.79 316 2.79 362 2.87
 140  0.084  0.062  0.454- 436 1.98 433 2.11 360 2.80 385 2.81 326 2.84 338 2.88
 141  0.083  0.312  0.454- 437 1.98 421 2.10 351 2.80 361 2.80 337 2.86 327 2.89
 142  0.084  0.563  0.454- 438 1.98 413 2.11 328 2.76 352 2.78 340 2.81 317 2.91
 143  0.084  0.812  0.454- 439 1.98 412 2.11 330 2.77 353 2.80 341 2.81 336 2.88
 144  0.417  0.062  0.455- 416 1.96 440 2.00 354 2.82 342 2.83 320 2.84 329 2.84
 145  0.415  0.311  0.457- 415 1.91 441 2.04 334 2.81 319 2.82 343 2.84 355 2.88
 146  0.416  0.559  0.458- 414 1.97 442 2.02 333 2.73 318 2.74 344 2.88 356 2.90
 147  0.417  0.810  0.455- 443 1.97 424 2.09 321 2.74 331 2.78 345 2.85 357 2.85
 148  0.750  0.064  0.453- 444 1.99 423 2.02 346 2.76 358 2.78 322 2.90 332 2.93
 149  0.747  0.314  0.455- 422 1.99 445 2.02 347 2.75 324 2.81 359 2.83 335 2.94
 150  0.748  0.564  0.454- 432 1.99 458 2.01 348 2.74 323 2.76 316 2.80 349 2.93
 151  0.749  0.813  0.453- 446 1.97 417 2.09 350 2.77 339 2.79 325 2.82 362 2.88
 152  0.250  0.062  0.454- 447 1.98 418 2.11 342 2.80 360 2.81 320 2.84 326 2.88
 153  0.915  0.313  0.547- 429 1.85 409 2.21 335 2.71 337 2.75 363 2.87 381 3.34
 154  0.252  0.314  0.454- 420 1.97 448 2.01 343 2.74 319 2.78 351 2.81 327 2.96
 155  0.252  0.565  0.454- 419 1.99 449 2.01 344 2.74 318 2.76 352 2.80 328 2.93
 156  0.250  0.810  0.456- 450 1.98 425 2.08 321 2.75 330 2.82 345 2.84 353 2.85
 157  0.833  0.250  0.407- 445 1.97 456 1.97 359 2.79 358 2.79 335 2.89
 158  0.584  0.315  0.454- 428 1.95 452 2.02 347 2.76 355 2.80 334 2.86 324 2.86
 159  0.833  0.000  0.407- 444 1.97 455 1.97 358 2.79 339 2.79 332 2.98
 160  0.500  0.500  0.407- 453 1.97 442 1.97 355 2.79 356 2.79 333 2.80
 161  0.083  0.188  0.361- 437 1.97 385 2.79 360 2.79
 162  0.000  0.000  0.407- 455 1.97 436 1.97 385 2.79 341 2.79 338 2.98
 163  0.000  0.250  0.407- 456 1.97 437 1.97 361 2.79 385 2.79 337 2.97
 164  0.000  0.500  0.407- 435 1.97 438 1.97 340 2.79 361 2.79 317 3.01
 165  0.000  0.750  0.407- 434 1.97 439 1.97 341 2.79 340 2.79 336 2.99
 166  0.333  0.000  0.407- 440 1.97 447 1.97 342 2.79 345 2.79 320 2.96
 167  0.333  0.250  0.407- 441 1.97 448 1.97 343 2.79 342 2.79 319 2.87
 168  0.333  0.500  0.407- 442 1.97 449 1.97 343 2.79 344 2.79 318 2.82
 169  0.333  0.750  0.407- 443 1.97 450 1.97 345 2.79 344 2.79 321 2.84
 170  0.667  0.000  0.407- 444 1.97 451 1.97 346 2.79 350 2.79 322 2.96
 171  0.667  0.250  0.407- 445 1.97 452 1.97 347 2.79 346 2.79 324 2.88
 172  0.667  0.500  0.407- 458 1.97 453 1.97 347 2.79 348 2.79 323 2.81
 173  0.667  0.750  0.407- 446 1.97 454 1.97 350 2.79 348 2.79 325 2.85
 174  0.167  0.000  0.407- 447 1.97 436 1.97 360 2.79 353 2.79 326 2.99
 175  0.167  0.250  0.407- 448 1.97 437 1.97 351 2.79 360 2.79 327 2.98
 176  0.167  0.500  0.407- 449 1.97 438 1.97 351 2.79 352 2.79 328 2.86
 177  0.167  0.750  0.407- 450 1.97 439 1.97 353 2.79 352 2.79 330 2.89
 178  0.500  0.000  0.407- 451 1.97 440 1.97 354 2.79 357 2.79 329 2.95
 179  0.500  0.250  0.407- 452 1.97 441 1.97 355 2.79 354 2.79 334 2.85
 180  0.500  0.750  0.407- 454 1.97 443 1.97 357 2.79 356 2.79 331 2.91
 181  0.167  0.124  0.499- 418 1.96 433 2.00 326 2.76 360 2.77 327 2.78
 182  0.918  0.063  0.547- 430 1.84 387 2.21 338 2.70 332 2.72 315 3.20 383 3.25
 183  0.168  0.873  0.500- 425 1.93 412 2.03 330 2.72 353 2.79 326 2.86
 184  0.252  0.188  0.547- 418 1.87 395 2.12 319 2.65 327 2.72 367 3.13 377 3.32
 185  0.749  0.934  0.548- 417 1.82 402 2.27 322 2.77 332 2.79 379 2.92 364 3.16
 186  0.752  0.680  0.553- 432 1.96 400 1.97 380 2.65 365 2.85 362 2.96 325 3.01
 187  0.753  0.435  0.550- 422 1.93 399 2.05 370 2.74 349 2.82 323 2.87 363 2.93
 188  0.423  0.444  0.546- 408 1.88 415 2.07 333 2.62 318 2.85 375 2.86 369 3.12
 189  0.423  0.688  0.547- 414 1.95 398 2.01 331 2.66 386 2.77 321 2.88 368 2.93
 190  0.748  0.184  0.551- 423 1.94 401 1.95 324 2.79 335 2.89 371 2.99 383 3.17
 191  0.416  0.937  0.546- 424 1.84 396 2.26 320 2.71 329 2.72 372 2.89 384 3.07
 192  0.084  0.939  0.546- 412 1.84 406 2.18 326 2.67 338 2.68 374 3.29 366 3.36
 193  0.416  0.191  0.546- 397 1.85 416 2.03 319 2.73 334 2.73 376 3.10 367 3.25
 194  0.086  0.690  0.545- 413 1.85 405 2.22 330 2.62 336 2.72 373 2.78
 195  0.083  0.439  0.545- 421 1.84 404 2.23 317 2.66 328 2.68 378 3.08 381 3.35
 196  0.084  0.189  0.546- 433 1.85 403 2.19 327 2.64 337 2.67 315 3.30 377 3.36
 197  0.499  0.126  0.500- 416 1.98 426 2.00 334 2.73 354 2.78 329 2.82 376 3.19
 198  1.000  0.499  0.595- 457 1.94 404 1.95 317 2.62 381 2.88 382 3.13
 199  0.999  0.754  0.592- 405 1.94 407 1.96 336 2.57 366 2.84 382 3.33
 200  0.335  0.254  0.592- 397 1.90 395 2.06 369 2.67 319 2.69 367 3.06
 201  0.334  1.000  0.592- 396 2.00 394 2.04 320 2.59 372 2.72 367 2.75
 202  1.000  0.998  0.593- 387 2.00 406 2.01 338 2.59 366 2.89 315 2.89
 203  0.001  0.250  0.592- 409 1.95 403 1.99 337 2.58 381 2.93 315 2.95
 204  0.334  0.497  0.591- 408 1.85 390 2.16 318 2.69 369 2.77 368 2.84
 205  0.336  0.740  0.591- 398 1.91 391 2.07 368 2.59 321 2.70 372 3.12
 206  0.663  0.247  0.591- 392 1.89 401 2.14 324 2.64 370 2.79 371 2.81
 207  0.666  0.000  0.592- 393 2.01 402 2.02 322 2.59 379 2.70 371 2.84
 208  0.666  0.742  0.590- 388 1.97 400 2.03 380 2.58 325 2.65 379 3.14
 209  0.667  0.494  0.591- 389 1.81 399 2.14 323 2.72 370 2.72 380 2.96
 210  0.167  0.998  0.592- 394 1.98 406 2.02 326 2.57 377 2.91 374 2.91
 211  0.169  0.249  0.593- 395 1.93 403 2.03 327 2.61 378 2.76 377 2.95
 212  0.171  0.750  0.595- 391 1.86 405 2.16 330 2.75 373 2.77 374 2.83
 213  0.248  0.436  0.550- 390 1.93 420 1.99 369 2.65 318 2.82 328 2.84 378 3.02
 214  0.166  0.503  0.588- 390 1.83 404 2.05 328 2.58 373 2.81 378 3.00
 215  0.249  0.683  0.552- 391 1.96 419 1.97 368 2.74 373 2.90 330 2.91 321 2.93
 216  0.581  0.186  0.549- 426 1.93 392 1.98 334 2.73 324 2.83 376 2.94 371 3.07
 217  0.915  0.813  0.547- 411 1.84 407 2.18 362 2.68 336 2.73 364 3.22 366 3.30
 218  0.917  0.563  0.547- 410 1.84 457 2.23 317 2.69 349 2.72 365 2.85
 219  0.581  0.560  0.549- 389 1.89 427 2.09 386 2.68 333 2.76 380 2.82 323 2.87
 220  0.586  0.815  0.551- 431 1.92 388 2.06 325 2.76 331 2.82 379 2.92 384 3.03
 221  0.583  0.312  0.546- 428 1.90 392 2.11 334 2.75 324 2.77 375 2.77 370 2.86
 222  0.583  0.063  0.547- 426 1.84 393 2.21 329 2.72 322 2.72 376 2.94 371 3.08
 223  0.254  0.813  0.551- 391 1.83 425 2.08 321 2.77 372 2.87 330 2.90 374 3.19
 224  0.252  0.559  0.544- 419 1.92 390 2.04 318 2.64 328 2.78 368 2.87 373 3.19
 225  0.249  0.314  0.546- 420 1.85 395 2.30 369 2.66 327 2.72 319 2.73 378 3.04
 226  0.251  0.062  0.547- 418 1.84 394 2.24 320 2.68 326 2.73 367 3.03 377 3.27
 227  0.749  0.808  0.546- 400 1.83 417 2.03 325 2.68 362 2.74 379 3.15 364 3.30
 228  0.746  0.558  0.545- 432 1.96 399 1.97 323 2.61 349 2.78 380 2.84 365 3.23
 229  0.414  0.811  0.548- 398 1.96 424 1.96 321 2.72 331 2.77 372 2.92 384 3.11
 230  0.748  0.060  0.545- 423 1.84 402 2.21 322 2.63 332 2.68 371 3.17 383 3.36
 231  0.748  0.311  0.548- 422 1.98 401 1.98 370 2.66 324 2.74 335 2.84 363 3.03
 232  0.416  0.320  0.553- 397 1.96 415 1.98 375 2.66 369 2.73 334 2.99 319 2.99
 233  0.421  0.565  0.555- 408 1.89 414 2.13 386 2.65 368 2.71 333 2.91 318 3.05
 234  0.416  0.065  0.547- 416 1.84 396 2.25 320 2.74 329 2.77 376 2.94 367 3.07
 235  0.085  0.813  0.547- 412 1.84 405 2.18 330 2.68 336 2.74 374 3.17 366 3.32
 236  0.083  0.564  0.546- 413 1.84 404 2.23 317 2.69 328 2.72 373 2.83
 237  0.087  0.313  0.547- 421 1.84 403 2.24 327 2.68 337 2.77 378 2.89 381 3.35
 238  0.082  0.063  0.548- 433 1.84 406 2.22 338 2.70 326 2.71 315 3.18 377 3.28
 239  0.916  0.939  0.546- 411 1.84 387 2.20 332 2.65 338 2.70 364 3.26 366 3.33
 240  0.913  0.689  0.545- 410 1.84 407 2.23 362 2.63 336 2.72 365 2.82
 241  0.583  0.938  0.546- 431 1.84 393 2.25 322 2.67 329 2.68 379 2.96 384 3.08
 242  0.917  0.189  0.546- 430 1.85 409 2.18 335 2.66 337 2.68 383 3.30 315 3.31
 243  0.916  0.437  0.546- 429 1.85 457 2.24 349 2.67 317 2.70 363 2.94 381 3.35
 244  0.577  0.436  0.552- 389 1.94 428 2.05 375 2.63 333 2.75 370 2.94 323 3.02
 245  0.580  0.686  0.547- 427 1.93 388 2.11 386 2.65 331 2.71 380 2.82 325 2.85
 246  0.252  0.937  0.545- 425 1.83 394 2.22 320 2.67 326 2.74 372 2.92 374 3.32
 247  0.498  0.504  0.609- 408 2.10  11 2.16 389 2.24 386 2.75 375 2.98 333 3.26
 248  0.498  0.253  0.590- 397 1.98 392 2.04 375 2.64 334 2.66 376 2.97
 249  0.500  1.000  0.591- 396 2.00 393 2.00 329 2.57 376 2.76 384 2.81
 250  0.754  0.693  0.658-  28 2.06  15 2.09 400 2.42 365 3.01 380 3.21
 251  0.748  0.937  0.640- 402 1.80 364 2.49 379 2.53
 252  0.254  0.187  0.641- 395 1.74 367 2.52 377 2.56
 253  0.746  0.194  0.647- 401 1.99   3 2.07 371 2.67 383 2.72
 254  0.756  0.436  0.639- 399 1.98  14 2.01 363 2.60 370 2.83
 255  0.417  0.935  0.640- 396 1.80 384 2.53 372 2.58
 256  0.422  0.676  0.633-  42 2.03 398 2.03 386 2.55 368 2.64
 257  0.591  0.810  0.646- 388 1.95  17 2.08 379 2.64 384 2.83
 258  0.916  0.062  0.641- 387 1.80 383 2.49 315 2.50
 259  0.913  0.562  0.643- 457 1.79 382 2.46 365 2.55
 260  0.915  0.312  0.640- 409 1.80 381 2.51 363 2.52
 261  0.914  0.813  0.642- 407 1.79 364 2.50 366 2.51
 262  0.582  0.065  0.640- 393 1.79 371 2.51 376 2.52
 263  0.582  0.319  0.634- 392 1.96  27 2.03 375 2.53 370 2.69
 264  0.591  0.564  0.640- 389 1.99   2 2.08 380 2.65  11 2.78 386 2.83
 265  0.248  0.574  0.629- 390 1.99  45 2.03 368 2.55 373 2.55
 266  0.262  0.799  0.647- 391 1.95   4 2.07 372 2.80 374 2.92
 267  0.252  0.317  0.642- 395 1.96  35 2.03 369 2.61 378 2.61
 268  0.251  0.059  0.642- 394 1.79 367 2.49 377 2.50
 269  0.917  0.563  0.361- 435 1.97 340 2.79 316 2.79
 270  0.500  0.374  0.500- 415 1.98 428 1.99 355 2.79 333 2.81 334 2.82 375 2.86
 271  0.500  0.873  0.501- 424 1.98 431 1.99 331 2.68 357 2.82 329 2.83 384 3.26
 272  0.501  0.621  0.500- 427 1.98 414 1.98 333 2.71 356 2.79 386 2.82 331 2.94
 273  0.832  0.623  0.500- 432 1.89 410 2.05 349 2.75 316 2.79 362 2.87 365 3.10
 274  0.833  0.875  0.498- 417 1.95 411 2.01 339 2.74 362 2.76 332 2.81
 275  0.833  0.373  0.499- 422 1.90 429 2.04 359 2.77 335 2.79 349 2.83 363 3.15
 276  0.833  0.125  0.500- 423 1.95 430 2.02 335 2.77 332 2.78 358 2.78
 277  0.167  0.376  0.498- 420 1.90 421 2.02 351 2.72 328 2.76 327 2.87 378 3.31
 278  0.168  0.624  0.500- 419 1.89 413 2.07 328 2.78 352 2.79 330 2.84 373 3.06
 279  0.582  0.438  0.646- 389 2.11  11 2.11  46 2.19 375 2.86 370 3.01
 280  0.581  0.685  0.639- 388 1.87  48 2.11 386 2.63 380 2.77
 281  0.917  0.187  0.641- 409 1.79 383 2.49 315 2.52
 282  0.582  0.935  0.639- 393 1.80 384 2.49 379 2.51
 283  0.830  0.750  0.593- 400 1.87 407 2.10 362 2.73 365 2.78 364 2.90
 284  0.832  0.248  0.592- 401 1.84 409 2.12 335 2.65 363 2.81 383 2.87
 285  0.833  0.504  0.589- 399 1.83 457 2.06 349 2.59 365 2.78 363 2.96
 286  0.832  0.002  0.592- 402 1.99 387 2.02 332 2.57 383 2.87 364 2.93
 287  0.501  0.756  0.593- 388 1.97 398 2.03 331 2.67 384 2.72 386 2.94
 288  0.418  0.065  0.640- 396 1.80 367 2.50 376 2.54
 289  0.425  0.305  0.656-  37 2.11  22 2.14 397 2.34 375 2.97 369 3.37
 290  0.412  0.813  0.639- 398 1.94  23 2.08 372 2.60 384 2.67
 291  0.399  0.551  0.652-  19 2.10  26 2.11 408 2.15 368 2.80 386 3.46
 292  0.752  0.571  0.634- 399 1.93  15 2.09 365 2.61 380 2.67
 293  0.741  0.810  0.640- 400 1.97  28 2.05 379 2.59 364 2.69
 294  0.747  0.313  0.640- 401 2.00   3 2.06 370 2.62 363 2.74
 295  0.748  0.067  0.639- 402 1.79 371 2.47 383 2.48
 296  0.084  0.312  0.641- 403 1.80 381 2.49 378 2.51
 297  0.667  0.874  0.499- 431 1.97 417 2.00 325 2.74 350 2.76 322 2.81 379 3.24
 298  0.087  0.562  0.642- 404 1.80 382 2.46 373 2.54
 299  0.084  0.061  0.641- 406 1.80 377 2.50 315 2.50
 300  0.087  0.436  0.640- 404 1.79 378 2.51 381 2.53
 301  0.084  0.186  0.641- 403 1.79 377 2.50 315 2.50
 302  0.419  0.188  0.640- 397 2.00  22 2.01 376 2.63 367 2.68
 303  0.414  0.419  0.630-  37 2.03 408 2.08 369 2.55 375 2.55
 304  0.084  0.935  0.641- 406 1.80 374 2.48 366 2.50
 305  0.083  0.687  0.640- 405 1.80 382 2.45 373 2.52
 306  0.913  0.436  0.640- 457 1.80 363 2.52 381 2.54
 307  0.917  0.687  0.640- 407 1.80 382 2.45 365 2.51
 308  0.914  0.937  0.641- 387 1.80 364 2.47 366 2.50
 309  0.241  0.442  0.642- 390 1.91   8 2.10 378 2.63 369 2.93
 310  0.253  0.678  0.664-   4 2.07  45 2.10 368 3.06 373 3.12
 311  0.578  0.191  0.644- 392 1.90  25 2.13 376 2.66 371 2.71
 312  0.252  0.930  0.637- 394 1.81 374 2.47 372 2.49
 313  0.084  0.812  0.642- 405 1.79 374 2.47 366 2.53
 314  0.917  0.812  0.361- 434 1.97 341 2.79 339 2.79
 315  0.001  0.123  0.619- 299 2.50 258 2.50 301 2.50 281 2.52 202 2.89 203 2.95 238 3.18 182 3.20
                           196 3.30 242 3.31 409 3.43 387 3.43 406 3.44 403 3.45 433 3.89 430 3.90
 316  0.833  0.625  0.407-  83 2.75  64 2.79 126 2.79 105 2.79 269 2.79  93 2.79 138 2.79 139 2.79
                           273 2.79 150 2.80  53 2.88 458 3.42 446 3.42 435 3.42 434 3.42 432 3.45
 317  1.000  0.500  0.507- 198 2.62 195 2.66 218 2.69 236 2.69 243 2.70  75 2.84  74 2.85  64 2.90
                           142 2.91  84 2.92  61 2.92 164 3.01 410 3.39 413 3.39 429 3.41 421 3.42
 318  0.331  0.499  0.501- 224 2.64  65 2.69 204 2.69  81 2.70 146 2.74 155 2.76  80 2.81 168 2.82
                           213 2.82 188 2.85  58 2.85 233 3.05 408 3.35 449 3.41 419 3.42 415 3.44
 319  0.330  0.248  0.503- 184 2.65 200 2.69 193 2.73  51 2.73 225 2.73  76 2.74 154 2.78 145 2.82
                           167 2.87  68 2.88  81 2.92 232 2.99 397 3.32 418 3.36 420 3.42 448 3.44
 320  0.333  0.001  0.506- 201 2.59 246 2.67 226 2.68 191 2.71 234 2.74  76 2.79 144 2.84 152 2.84
                            78 2.85  89 2.90  56 2.92 166 2.96 416 3.33 425 3.38 418 3.40 424 3.41
 321  0.334  0.751  0.502- 205 2.70 229 2.72  78 2.74 147 2.74  69 2.75 156 2.75 223 2.77  80 2.81
                           169 2.84  57 2.84 189 2.88 215 2.93 391 3.38 398 3.40 414 3.41 424 3.42
 322  0.666  0.000  0.506- 207 2.59 230 2.63 241 2.67 222 2.72 185 2.77  79 2.81 297 2.81  52 2.84
                            92 2.85  86 2.89 148 2.90 170 2.96 426 3.37 417 3.37 423 3.39 431 3.39
 323  0.669  0.500  0.501- 228 2.61  82 2.70  54 2.71 209 2.72 150 2.76  88 2.79  91 2.79 172 2.81
                            90 2.82 219 2.87 187 2.87 244 3.02 389 3.34 458 3.41 422 3.41 432 3.42
 324  0.667  0.248  0.503- 206 2.64  79 2.72 231 2.74  55 2.75 221 2.77  71 2.79 190 2.79 149 2.81
                           216 2.83 158 2.86 171 2.88  82 2.92 426 3.41 401 3.42 428 3.43 423 3.43
 325  0.666  0.752  0.502- 208 2.65 227 2.68  73 2.72 297 2.74 220 2.76  53 2.78  90 2.81 151 2.82
                            87 2.83 245 2.85 173 2.85 186 3.01 400 3.34 431 3.38 427 3.39 454 3.45
 326  0.166  0.001  0.507- 210 2.57 192 2.67 238 2.71 226 2.73 246 2.74 181 2.76 140 2.84 183 2.86
                           152 2.88  60 2.89  89 2.92 174 2.99 425 3.37 418 3.39 433 3.39 412 3.44
 327  0.166  0.248  0.506- 211 2.61 196 2.64 237 2.68 225 2.72 184 2.72 181 2.78  51 2.85 277 2.87
                            62 2.88 141 2.89 154 2.96 175 2.98 420 3.37 433 3.39 418 3.39 421 3.46
 328  0.163  0.500  0.502- 214 2.58 195 2.68 236 2.72 142 2.76 277 2.76 224 2.78 278 2.78  61 2.79
                           213 2.84  65 2.85 176 2.86 155 2.93 390 3.33 421 3.39 419 3.42 413 3.42
 329  0.500  0.999  0.505- 249 2.57 241 2.68 222 2.72 191 2.72 234 2.77 197 2.82 271 2.83 144 2.84
                            92 2.85  86 2.86  56 2.87 178 2.95 424 3.38 416 3.38 431 3.39 426 3.40
 330  0.164  0.751  0.503- 194 2.62 235 2.68 183 2.72 212 2.75 143 2.77  59 2.81 156 2.82 278 2.84
                           177 2.89  69 2.90 223 2.90 215 2.91 391 3.34 412 3.37 413 3.43 419 3.45
 331  0.501  0.753  0.504- 189 2.66 287 2.67 271 2.68 245 2.71  73 2.76 229 2.77 147 2.78 220 2.82
                            87 2.86  57 2.91 180 2.91 272 2.94 431 3.38 398 3.38 424 3.41 427 3.42
 332  0.834  0.000  0.506- 286 2.57 239 2.65 230 2.68 182 2.72 276 2.78 185 2.79 274 2.81  66 2.85
                            52 2.88  70 2.90 148 2.93 159 2.98 417 3.36 423 3.36 430 3.41 411 3.41
 333  0.501  0.500  0.500- 188 2.62  88 2.71 272 2.71 146 2.73 244 2.75 219 2.76  91 2.78 160 2.80
                           270 2.81  58 2.82 233 2.91 247 3.26 453 3.41 428 3.43 442 3.44 415 3.45
 334  0.501  0.248  0.502- 248 2.66  71 2.72 216 2.73 193 2.73 197 2.73 221 2.75  68 2.81 145 2.81
                           270 2.82 179 2.85 158 2.86 232 2.99 397 3.36 426 3.39 428 3.42 452 3.45
 335  0.835  0.248  0.503- 284 2.65 242 2.66 153 2.71 276 2.77  85 2.79 275 2.79  55 2.80  67 2.81
                           231 2.84 190 2.89 157 2.89 149 2.94 401 3.34 430 3.37 429 3.43 422 3.45
 336  1.000  0.751  0.507- 199 2.57 240 2.72 194 2.72 217 2.73 235 2.74  75 2.77  77 2.78  63 2.87
                           143 2.88  83 2.93  59 2.93 165 2.99 413 3.39 410 3.39 412 3.40 411 3.40
 337  0.001  0.250  0.506- 203 2.58 196 2.67 242 2.68 153 2.75  74 2.77 237 2.77  72 2.79 141 2.86
                            62 2.89  67 2.90  85 2.92 163 2.97 421 3.39 429 3.40 433 3.40 430 3.41
 338  0.000  0.000  0.506- 202 2.59 192 2.68 239 2.70 182 2.70 238 2.70  77 2.80  72 2.80 140 2.88
                            66 2.89  70 2.90  60 2.91 162 2.98 430 3.40 411 3.40 412 3.41 433 3.41
 339  0.833  0.875  0.407- 274 2.74  70 2.78 151 2.79 125 2.79 104 2.79 314 2.79 101 2.79 139 2.79
                           159 2.79  63 2.80  52 2.84 446 3.42 434 3.42 444 3.42 455 3.42 417 3.48
 340  0.000  0.625  0.407-  75 2.72 269 2.79  93 2.79 114 2.79 136 2.79 164 2.79 165 2.79  59 2.80
                            83 2.80  64 2.80 142 2.81 435 3.42 434 3.42 438 3.42 439 3.42 413 3.53
 341  0.000  0.875  0.407-  77 2.78  70 2.78  60 2.79 314 2.79 133 2.79 101 2.79 135 2.79 165 2.79
                           162 2.79  63 2.81 143 2.81 434 3.42 439 3.42 455 3.42 436 3.42 412 3.58
 342  0.333  0.125  0.407-  76 2.74 132 2.79 134 2.79 124 2.79 103 2.79 166 2.79 167 2.79  68 2.80
                           152 2.80  51 2.82 144 2.83 440 3.42 441 3.42 447 3.42 448 3.42 416 3.47
 343  0.333  0.375  0.407- 154 2.74  58 2.78 110 2.79 131 2.79 111 2.79 123 2.79 167 2.79 168 2.79
                            65 2.81 145 2.84  81 2.88 441 3.42 442 3.42 448 3.42 449 3.42 415 3.42
 344  0.333  0.625  0.407- 155 2.74  57 2.78  69 2.79 130 2.79 109 2.79 122 2.79 102 2.79 168 2.79
                           169 2.79 146 2.88  80 2.92 442 3.42 443 3.42 449 3.42 450 3.42 414 3.45
 345  0.333  0.875  0.407-  78 2.76  89 2.78 129 2.79 121 2.79 108 2.79 100 2.79 169 2.79 166 2.79
                            56 2.79 156 2.84 147 2.85 443 3.42 450 3.42 440 3.42 447 3.42 425 3.49
 346  0.667  0.125  0.407- 148 2.76  79 2.77 128 2.79 107 2.79 120 2.79  99 2.79 170 2.79 171 2.79
                            92 2.82  71 2.84  55 2.85 444 3.42 445 3.42 451 3.42 452 3.42 426 3.53
 347  0.667  0.375  0.407- 149 2.75 158 2.76 106 2.79 127 2.79  98 2.79 119 2.79 171 2.79 172 2.79
                            54 2.83  88 2.86  82 2.89 445 3.42 458 3.42 453 3.42 452 3.42 428 3.46
 348  0.667  0.625  0.407- 150 2.74 126 2.79 105 2.79 118 2.79  97 2.79 172 2.79 173 2.79  91 2.79
                            87 2.80  53 2.84  90 2.88 458 3.42 446 3.42 453 3.42 454 3.42 427 3.43
 349  0.836  0.500  0.503- 285 2.59 243 2.67 218 2.72 273 2.75  64 2.78 228 2.78  84 2.78 187 2.82
                           275 2.83  54 2.85 138 2.88 150 2.93 399 3.35 422 3.41 429 3.41 432 3.42
 350  0.667  0.875  0.407- 297 2.76 151 2.77 125 2.79 104 2.79 117 2.79  96 2.79 173 2.79 170 2.79
                            86 2.79  52 2.82  73 2.84 446 3.42 454 3.42 444 3.42 451 3.42 417 3.50
 351  0.167  0.375  0.407- 277 2.72  61 2.78 111 2.79 137 2.79 123 2.79 113 2.79 176 2.79 175 2.79
                           141 2.80 154 2.81  65 2.86 448 3.42 449 3.42 437 3.42 438 3.42 420 3.44
 352  0.167  0.625  0.407-  59 2.76 142 2.78 278 2.79 122 2.79 102 2.79 114 2.79 136 2.79 176 2.79
                           177 2.79 155 2.80  69 2.87 449 3.42 450 3.42 438 3.42 439 3.42 419 3.46
 353  0.167  0.875  0.407-  60 2.77  89 2.78 183 2.79 121 2.79 133 2.79 100 2.79 135 2.79 177 2.79
                           174 2.79 143 2.80 156 2.85 450 3.42 439 3.42 447 3.42 436 3.42 425 3.47
 354  0.500  0.125  0.407-  68 2.78 197 2.78 120 2.79  99 2.79 132 2.79 134 2.79 178 2.79 179 2.79
                            92 2.80  71 2.82 144 2.82 451 3.42 452 3.42 440 3.42 441 3.42 416 3.49
 355  0.500  0.375  0.407-  58 2.77 270 2.79  98 2.79 119 2.79 110 2.79 131 2.79 179 2.79 160 2.79
                           158 2.80  88 2.84 145 2.88 452 3.42 453 3.42 441 3.42 442 3.42 415 3.44
 356  0.500  0.625  0.407-  57 2.77  87 2.78 118 2.79  97 2.79 130 2.79 109 2.79 160 2.79 180 2.79
                           272 2.79  91 2.83 146 2.90 453 3.42 454 3.42 442 3.42 443 3.42 414 3.44
 357  0.500  0.875  0.407-  56 2.76  86 2.77 117 2.79 129 2.79  96 2.79 108 2.79 180 2.79 178 2.79
                           271 2.82 147 2.85  73 2.85 454 3.42 443 3.42 451 3.42 440 3.42 424 3.52
 358  0.833  0.125  0.407-  85 2.76 148 2.78 276 2.78 128 2.79 107 2.79 116 2.79  95 2.79 159 2.79
                           157 2.79  66 2.79  55 2.85 444 3.42 445 3.42 455 3.42 456 3.42 423 3.53
 359  0.833  0.375  0.407- 275 2.77  84 2.78 106 2.79 127 2.79  94 2.79 115 2.79 157 2.79 138 2.79
                            67 2.79 149 2.83  54 2.84 445 3.42 458 3.42 456 3.42 435 3.42 422 3.45
 360  0.167  0.125  0.407-  62 2.76 181 2.77 124 2.79 103 2.79 112 2.79 161 2.79 174 2.79 175 2.79
                           140 2.80 152 2.81  51 2.81 447 3.42 448 3.42 436 3.42 437 3.42 418 3.57
 361  0.000  0.375  0.407-  74 2.75  61 2.77  94 2.79 115 2.79 137 2.79 113 2.79 163 2.79 164 2.79
                            84 2.80  67 2.80 141 2.80 435 3.42 456 3.42 438 3.42 437 3.42 429 3.54
 362  0.836  0.752  0.503- 240 2.63 217 2.68 283 2.73 227 2.74  63 2.75 274 2.76  83 2.80  53 2.84
                           139 2.87 273 2.87 151 2.88 186 2.96 400 3.31 411 3.37 410 3.43 434 3.45
 363  0.837  0.373  0.604- 306 2.52 260 2.52 254 2.60 294 2.74 284 2.81 153 2.87 187 2.93 243 2.94
                           285 2.96 231 3.03 275 3.15 409 3.39 401 3.42 457 3.45 399 3.48 429 3.53
 364  0.832  0.876  0.618- 308 2.47 251 2.49 261 2.50 293 2.69 283 2.90 286 2.93 185 3.16 217 3.22
                           239 3.26 227 3.30 400 3.44 387 3.44 402 3.45 407 3.47 411 3.91 366 3.95
 365  0.841  0.627  0.603- 307 2.51 259 2.55 292 2.61 285 2.78 283 2.78 240 2.82 186 2.85 218 2.85
                           250 3.01 273 3.10 228 3.23 407 3.33 457 3.37 399 3.42 410 3.44 400 3.54
 366  0.999  0.875  0.622- 304 2.50 308 2.50 261 2.51 313 2.53 199 2.84 202 2.89 217 3.30 235 3.32
                           239 3.33 192 3.36 407 3.40 405 3.41 406 3.45 387 3.45 364 3.95 411 3.96
 367  0.332  0.120  0.613- 268 2.49 288 2.50 252 2.52 302 2.68 201 2.75 226 3.03 200 3.06 234 3.07
                           184 3.13 193 3.25 396 3.36 394 3.36 395 3.43  76 3.45 397 3.55 418 3.75
 368  0.334  0.624  0.595- 265 2.55 205 2.59 256 2.64 233 2.71  80 2.73 215 2.74 291 2.80 204 2.84
                           224 2.87 189 2.93 310 3.06 408 3.36 398 3.41 414 3.44 419 3.45 391 3.51
 369  0.326  0.373  0.593- 303 2.55 267 2.61 213 2.65 225 2.66 200 2.67  81 2.72 232 2.73 204 2.77
                           309 2.93 188 3.12 420 3.30 289 3.37 395 3.40 390 3.41 408 3.43  37 3.44
 370  0.671  0.372  0.594- 294 2.62 231 2.66 263 2.69 209 2.72  82 2.73 187 2.74 206 2.79 254 2.83
                           221 2.86 244 2.94 279 3.01 422 3.35 401 3.39 428 3.44 389 3.45 392 3.46
 371  0.665  0.125  0.612- 295 2.47 262 2.51 253 2.67 311 2.71 206 2.81 207 2.84 190 2.99 216 3.07
                           222 3.08 230 3.17 392 3.38  79 3.38 393 3.39 402 3.40 401 3.50 426 3.75
 372  0.334  0.879  0.603- 312 2.49 255 2.58 290 2.60 201 2.72 266 2.80 223 2.87 191 2.89 229 2.92
                           246 2.92 205 3.12  78 3.13 394 3.33 396 3.34 398 3.47 391 3.48 424 3.55
 373  0.159  0.627  0.602- 305 2.52 298 2.54 265 2.55 212 2.77 194 2.78 214 2.81 236 2.83 215 2.90
                           278 3.06 310 3.12 224 3.19 405 3.33 404 3.37 413 3.41 390 3.50 391 3.54
 374  0.166  0.873  0.619- 312 2.47 313 2.47 304 2.48 212 2.83 210 2.91 266 2.92 235 3.17 223 3.19
                           192 3.29 246 3.32 391 3.42 405 3.43 394 3.44 406 3.45 412 3.90 366 3.96
 375  0.501  0.371  0.595- 263 2.53 303 2.55 244 2.63 248 2.64 232 2.66 221 2.77 270 2.86 188 2.86
                           279 2.86 289 2.97 247 2.98 392 3.39 428 3.40 397 3.43 415 3.48 408 3.53
 376  0.500  0.122  0.606- 262 2.52 288 2.54 302 2.63 311 2.66 249 2.76 216 2.94 234 2.94 222 2.94
                           248 2.97 193 3.10 197 3.19 393 3.33 396 3.35 392 3.44 397 3.51 426 3.62
 377  0.167  0.123  0.621- 299 2.50 301 2.50 268 2.50 252 2.56 210 2.91 211 2.95 226 3.27 238 3.28
                           184 3.32 196 3.36 395 3.40 394 3.44 406 3.46 403 3.47 367 3.89 418 3.95
 378  0.164  0.371  0.608- 296 2.51 300 2.51 267 2.61 309 2.63 211 2.76 237 2.89 214 3.00 213 3.02
                           225 3.04 195 3.08 277 3.31 403 3.34 390 3.41 395 3.46 404 3.48 421 3.62
 379  0.665  0.881  0.607- 282 2.51 251 2.53 293 2.59 257 2.64 207 2.70 220 2.92 185 2.92 241 2.96
                           208 3.14 227 3.15 297 3.24 393 3.32 402 3.36 388 3.51 400 3.55 431 3.60
 380  0.666  0.626  0.593- 208 2.58 186 2.65 264 2.65 292 2.67  90 2.71 280 2.77 245 2.82 219 2.82
                           228 2.84 209 2.96 250 3.21 389 3.33 388 3.38 427 3.40 432 3.40  15 3.42
 381  0.000  0.375  0.623- 296 2.49 260 2.51 300 2.53 306 2.54 198 2.88 203 2.93 153 3.34 237 3.35
                           195 3.35 243 3.35 404 3.44 457 3.45 409 3.45 403 3.49 378 3.90 363 3.90
 382  1.000  0.622  0.644- 305 2.45 307 2.45 259 2.46 298 2.46 198 3.13 199 3.33 457 3.54 404 3.55
                           405 3.65 407 3.68 365 3.97 373 3.97 317 4.92 336 5.02
 383  0.834  0.125  0.620- 295 2.48 258 2.49 281 2.49 253 2.72 286 2.87 284 2.87 190 3.17 182 3.25
                           242 3.30 230 3.36 401 3.42 402 3.43 387 3.44 409 3.47 430 3.93 315 3.95
 384  0.500  0.876  0.610- 282 2.49 255 2.53 290 2.67 287 2.72 249 2.81 257 2.83 220 3.03 191 3.07
                           241 3.08 229 3.11 271 3.26 396 3.39 393 3.40 388 3.47 398 3.49 431 3.69
 385  0.000  0.125  0.407-  72 2.74  62 2.78 116 2.79  95 2.79 112 2.79 161 2.79 162 2.79 163 2.79
                            85 2.79  66 2.81 140 2.81 455 3.42 456 3.42 436 3.42 437 3.42 430 3.57
 386  0.504  0.625  0.594- 256 2.55 280 2.63 233 2.65 245 2.65 219 2.68 247 2.75 189 2.77 272 2.82
                           264 2.83 287 2.94 427 3.37 388 3.37 389 3.45 291 3.46 414 3.47 398 3.49
 387  0.916  1.000  0.604- 308 1.80 258 1.80 202 2.00 286 2.02 239 2.20 182 2.21 315 3.43 364 3.44
                           383 3.44 366 3.45 332 3.50 338 3.53
 388  0.584  0.750  0.599- 280 1.87 257 1.95 208 1.97 287 1.97 220 2.06 245 2.11 386 3.37 380 3.38
                           384 3.47 331 3.47 325 3.49 379 3.51
 389  0.591  0.501  0.594- 209 1.81 219 1.89 244 1.94 264 1.99 279 2.11 247 2.24  11 3.12 380 3.33
                           323 3.34 370 3.45 386 3.45 333 3.51 375 3.57
 390  0.242  0.498  0.594- 214 1.83 309 1.91 213 1.93 265 1.99 224 2.04 204 2.16 328 3.33 378 3.41
                           369 3.41 318 3.49 373 3.50 368 3.55
 391  0.249  0.752  0.592- 223 1.83 212 1.86 266 1.95 215 1.96 205 2.07 330 3.34 321 3.38 374 3.42
                           372 3.48 368 3.51 373 3.54
 392  0.584  0.247  0.597- 206 1.89 311 1.90 263 1.96 216 1.98 248 2.04 221 2.11 371 3.38 375 3.39
                           324 3.44 376 3.44 334 3.46 370 3.46
 393  0.583  0.001  0.604- 262 1.79 282 1.80 249 2.00 207 2.01 222 2.21 241 2.25 379 3.32 376 3.33
                           371 3.39 384 3.40 329 3.55 322 3.56
 394  0.249  0.998  0.604- 268 1.79 312 1.81 210 1.98 201 2.04 246 2.22 226 2.24 372 3.33 367 3.36
                           377 3.44 374 3.44 326 3.53 320 3.56
 395  0.249  0.246  0.604- 252 1.74 211 1.93 267 1.96 200 2.06 184 2.12 225 2.30 369 3.40 377 3.40
                           367 3.43 378 3.46 327 3.51 319 3.58
 396  0.417  0.000  0.605- 255 1.80 288 1.80 249 2.00 201 2.00 234 2.25 191 2.26 372 3.34 376 3.35
                           367 3.36 384 3.39 329 3.57 320 3.57
 397  0.415  0.248  0.591- 193 1.85 200 1.90 232 1.96 248 1.98 302 2.00 289 2.34 319 3.32 334 3.36
                           375 3.43 369 3.49 376 3.51 367 3.55
 398  0.416  0.750  0.595- 205 1.91 290 1.94 229 1.96 189 2.01 256 2.03 287 2.03 331 3.38 321 3.40
                           368 3.41 372 3.47 386 3.49 384 3.49
 399  0.757  0.503  0.595- 285 1.83 292 1.93 228 1.97 254 1.98 187 2.05 209 2.14 349 3.35 365 3.42
                           363 3.48 380 3.49 323 3.52 370 3.55
 400  0.752  0.753  0.590- 227 1.83 283 1.87 186 1.97 293 1.97 208 2.03 250 2.42  28 3.13 362 3.31
                           325 3.34 364 3.44 380 3.47 365 3.54 379 3.55
 401  0.754  0.248  0.594- 284 1.84 190 1.95 231 1.98 253 1.99 294 2.00 206 2.14   3 3.05 335 3.34
                           370 3.39 363 3.42 383 3.42 324 3.42 371 3.50
 402  0.750  0.002  0.604- 295 1.79 251 1.80 286 1.99 207 2.02 230 2.21 185 2.27 379 3.36 371 3.40
                           383 3.43 364 3.45 332 3.55 322 3.56
 403  0.084  0.248  0.604- 301 1.79 296 1.80 203 1.99 211 2.03 196 2.19 237 2.24 378 3.34 315 3.45
                           377 3.47 381 3.49 327 3.52 337 3.53
 404  0.081  0.500  0.604- 300 1.79 298 1.80 198 1.95 214 2.05 195 2.23 236 2.23 373 3.37 381 3.44
                           317 3.48 378 3.48 382 3.55 328 3.61
 405  0.080  0.751  0.603- 313 1.79 305 1.80 199 1.94 212 2.16 235 2.18 194 2.22 373 3.33 366 3.41
                           374 3.43 336 3.47 330 3.60 382 3.65
 406  0.083  0.998  0.603- 304 1.80 299 1.80 202 2.01 210 2.02 192 2.18 238 2.22 315 3.44 366 3.45
                           374 3.45 377 3.46 326 3.51 338 3.52
 407  0.918  0.751  0.603- 261 1.79 307 1.80 199 1.96 283 2.10 217 2.18 240 2.23 365 3.33 366 3.40
                           364 3.47 336 3.49 362 3.59 382 3.68
 408  0.412  0.498  0.593- 204 1.85 188 1.88 233 1.89 303 2.08 247 2.10 291 2.15 318 3.35 368 3.36
                           369 3.43 333 3.50 375 3.53 386 3.59
 409  0.920  0.249  0.603- 281 1.79 260 1.80 203 1.95 284 2.12 242 2.18 153 2.21 363 3.39 315 3.43
                           381 3.45 383 3.47 337 3.48 335 3.59
 410  0.918  0.626  0.506- 218 1.84 240 1.84  75 1.94 273 2.05  83 2.10  64 2.11 317 3.39 336 3.39
                           349 3.42 362 3.43 365 3.44 340 3.55 316 3.59
 411  0.917  0.875  0.507- 217 1.84 239 1.84  77 1.97 274 2.01  70 2.11  63 2.12 362 3.37 336 3.40
                           338 3.40 332 3.41 341 3.58 339 3.59 364 3.91 366 3.96
 412  0.083  0.875  0.507- 192 1.84 235 1.84  77 1.97 183 2.03  60 2.11 143 2.11 330 3.37 336 3.40
                           338 3.41 326 3.44 341 3.58 353 3.59 374 3.90 366 3.98
 413  0.081  0.626  0.506- 236 1.84 194 1.85  75 1.93 278 2.07  59 2.10 142 2.11 336 3.39 317 3.39
                           373 3.41 328 3.42 330 3.43 340 3.53 352 3.60
 414  0.417  0.626  0.501-  57 1.91  80 1.92 189 1.95 146 1.97 272 1.98 233 2.13 321 3.41 368 3.44
                           356 3.44 344 3.45 331 3.46 333 3.46 386 3.47 318 3.48
 415  0.416  0.374  0.501- 145 1.91  81 1.94  58 1.96 270 1.98 232 1.98 188 2.07 343 3.42 318 3.44
                           355 3.44 333 3.45 334 3.46 319 3.48 375 3.48 369 3.50
 416  0.416  0.122  0.503- 234 1.84 144 1.96  76 1.96 197 1.98 193 2.03  68 2.07 320 3.33 329 3.38
                           334 3.46 342 3.47 319 3.47 354 3.49 376 3.69 367 3.87
 417  0.751  0.879  0.503- 185 1.82 274 1.95  52 1.95 297 2.00 227 2.03 151 2.09 332 3.36 322 3.37
                           325 3.48 339 3.48 362 3.48 350 3.50 379 3.72 364 3.96
 418  0.249  0.124  0.507- 226 1.84 184 1.87 181 1.96  76 2.01 152 2.11  51 2.13 319 3.36 326 3.39
                           327 3.39 320 3.40 360 3.57 342 3.59 367 3.75 377 3.95
 419  0.248  0.624  0.503- 278 1.89 224 1.92 215 1.97  69 1.99 155 1.99  80 2.09 328 3.42 318 3.42
                           368 3.45 330 3.45 352 3.46 321 3.48 344 3.52 373 3.64
 420  0.247  0.373  0.503- 225 1.85 277 1.90 154 1.97 213 1.99  65 2.07  81 2.08 369 3.30 327 3.37
                           319 3.42 351 3.44 328 3.45 318 3.46 343 3.53 378 3.71
 421  0.082  0.375  0.506- 237 1.84 195 1.84  74 1.96 277 2.02 141 2.10  61 2.11 337 3.39 328 3.39
                           317 3.42 327 3.46 361 3.55 351 3.59 378 3.62 381 3.99
 422  0.753  0.375  0.503- 275 1.90 187 1.93 231 1.98  54 1.99 149 1.99  82 2.06 370 3.35 349 3.41
                           323 3.41 335 3.45 359 3.45 324 3.49 347 3.52 363 3.65
 423  0.751  0.122  0.505- 230 1.84 190 1.94 276 1.95  79 2.02 148 2.02  55 2.11 332 3.36 322 3.39
                           324 3.43 335 3.45 358 3.53 346 3.55 371 3.79 383 3.96
 424  0.417  0.877  0.504- 191 1.84 229 1.96  78 1.97 271 1.98  56 2.00 147 2.09 329 3.38 320 3.41
                           331 3.41 321 3.42 345 3.51 357 3.52 372 3.55 384 3.74
 425  0.249  0.879  0.503- 246 1.83 183 1.93  89 1.94  78 2.00 156 2.08 223 2.08 326 3.37 320 3.38
                           353 3.47 330 3.48 321 3.48 345 3.49 372 3.63 374 4.00
 426  0.584  0.123  0.505- 222 1.84 216 1.93  79 1.96 197 2.00  92 2.02  71 2.09 322 3.37 334 3.39
                           329 3.40 324 3.41 346 3.53 354 3.54 376 3.62 371 3.75
 427  0.584  0.627  0.501-  87 1.91 245 1.93  90 1.93 272 1.98  91 1.99 219 2.09 386 3.37 325 3.39
                           380 3.40 331 3.42 348 3.43 356 3.44 333 3.45 323 3.48
 428  0.584  0.373  0.502- 221 1.90  82 1.94 158 1.95 270 1.99  88 2.02 244 2.05 375 3.40 334 3.42
                           324 3.43 333 3.43 370 3.44 347 3.46 323 3.46 355 3.47
 429  0.918  0.374  0.506- 153 1.85 243 1.85  74 1.94 275 2.04  67 2.09  84 2.10 337 3.40 317 3.41
                           349 3.41 335 3.43 363 3.53 361 3.54 359 3.59 381 4.00
 430  0.918  0.125  0.507- 182 1.84 242 1.85  72 1.97 276 2.02  66 2.11  85 2.12 335 3.37 338 3.40
                           332 3.41 337 3.41 385 3.57 358 3.59 315 3.90 383 3.93
 431  0.584  0.876  0.506- 241 1.84 220 1.92 297 1.97 271 1.99  86 2.06  73 2.10 331 3.38 325 3.38
                           322 3.39 329 3.39 350 3.55 357 3.56 379 3.60 384 3.69
 432  0.752  0.624  0.503- 273 1.89 228 1.96 186 1.96  53 1.97 150 1.99  90 2.06 380 3.40 349 3.42
                           323 3.42 316 3.45 362 3.46 325 3.51 348 3.51 365 3.67
[...]
  273            m_sumb_d                              0.373445                       42   5
  274          m_sumb_d                              0.000587                          7   4
  275        setdij_                               5.223255                          140   3
  276          m_sumb_d                              1.268473                        140   4
  277        set_dd_magatom                        0.000022                            7   3
  278        set_dd_paw                            0.087476                            7   3
  279          set_rsgf_all                          0.000014                          7   4
  280          m_sumb_d                              0.085762                         49   4
  281        strkin                                0.039332                            7   3
  282          m_sumb_d                              0.002627                          7   4
  283        strelo                                0.040083                            7   3
  284          m_sumb_d                              0.003274                         14   4
  285        strnlr                               48.091114                            7   3
  286          rspher_all                            2.229729                         63   4
  287          phaser                                0.000036                         63   4
  288          rpro_isp                             45.342393                         63   4
  289            fftwav_mpi                           34.302399                     8820   5
  290              fft3d_mpi                            30.708818                   8820   6
  291                fftbrc_mpi                           26.239522                 8820   7
  292                  fftbas_plan_mpi                      26.210757               8820   8
  293                    dfftw_execute                        13.354927            26460   9
  294                    map_forward                           7.492701            17640   9
  295                      map_gather                            0.754715           8820  10
  296                      m_alltoallv_z                         2.706712           8820  10
  297                      map_scatter                           1.620311           8820  10
  298            rpromu                               10.928843                     2205   5
  299              rpromu_gemm                           3.460005                 500535   6
  300              m_sumb_d                              1.097307                   8820   6
  301          m_sumb_d                              0.372005                          7   4
  302        m_sumb_d                              0.018702                           49   3
  303        fft3d_mpi                             4.339246                          497   3
  304          fftbrc_mpi                            4.216296                        497   4
  305            fftbas_plan_mpi                       4.214765                      497   5
  306              dfftw_execute                         0.615549                   1491   6
  307              map_forward                           1.603901                    490   6
  308                map_gather                            0.031103                  245   7
  309                m_alltoallv_z                         1.417733                  245   7
  310                map_scatter                           0.150499                  245   7
  311              map_backward                          1.643709                    504   6
  312                map_gather                            0.122268                  252   7
  313                m_alltoallv_z                         1.446558                  252   7
  314                map_scatter                           0.069729                  252   7
  315        ggaall_grid                           1.338025                            7   3
  316        forhar                                2.858178                            7   3
  317          m_sumb_d                              0.046887                          7   4
  318        strehar                               0.043210                            7   3
  319          m_sumb_d                              0.003548                          7   4
  320        m_bcast_d                             0.004803                           14   3
  321      potlok                               70.683590                             13   2
  322        fft3d_mpi                            25.611568                         2741   3
  323          fftbrc_mpi                           24.921165                       2741   4
  324            fftbas_plan_mpi                      24.911924                     2741   5
  325              dfftw_execute                         3.468425                   8223   6
  326              map_forward                           9.808072                   2754   6
  327                map_gather                            0.186621                 1390   7
  328                m_alltoallv_z                         8.747995                 1390   7
  329                map_scatter                           0.847412                 1390   7
  330              map_backward                          9.688557                   2728   6
  331                map_gather                            0.678614                 1364   7
  332                m_alltoallv_z                         8.600873                 1364   7
  333                map_scatter                           0.382153                 1364   7
  334        ggaall_grid                          19.169871                          237   3
  335        m_sumb_d                              0.278499                         1224   3
  336        fewald                                0.018521                           26   3
  337          rsp                                   0.016931                         26   4
  338          rcp                                   0.001396                         26   4
  339        pothar                                0.022450                           13   3
  340          m_sumb_d                              0.015962                         13   4
  341        m_bcast_d                             0.047048                           13   3
  342      potlok_metagga                        0.000017                             13   2
  343      set_dd_magatom                        0.000008                              7   2
  344      set_dd_paw                            0.158854                             13   2
  345        set_rsgf_all                          0.000028                           13   3
  346        m_sumb_d                              0.155755                           91   3
  347      m_sumb_d                             60.727007                           3518   2
  348      wavpre_noio                           1.655859                              6   2
  349        stufak                                1.574321                            6   3
  350      eddiag                              134.640681                              6   2
  351        overl                                 0.008059                            6   3
  352        redis_proj                            1.317871                           18   3
  353          m_alltoall_d                          1.310790                       2520   4
  354        fftwav_mpi                            3.307349                          840   3
  355          fft3d_mpi                             2.960454                        840   4
  356            fftbrc_mpi                            2.510450                      840   5
  357              fftbas_plan_mpi                       2.507784                    840   6
  358                dfftw_execute                         1.272047                 2520   7
  359                map_forward                           0.734732                 1680   7
  360                  map_gather                            0.076037                840   8
  361                  m_alltoallv_z                         0.265079                840   8
  362                  map_scatter                           0.155034                840   8
  363        hamilt_local                          2.979526                          840   3
  364          vhamil                                0.396826                        840   4
  365          kinhamil                              2.575452                        840   4
  366            fftext_mpi                            2.545388                      840   5
  367              fft3d_mpi                             2.487908                    840   6
  368                fftbrc_mpi                            2.095333                  840   7
  369                  fftbas_plan_mpi                       2.092516                840   8
  370                    dfftw_execute                         1.094722             2520   9
  371                    map_backward                          0.504859             1680   9
  372                      map_gather                            0.132582            840  10
  373                      m_alltoallv_z                         0.243787            840  10
  374                      map_scatter                           0.114765            840  10
  375        redis_pw                              1.820282                          846   3
  376          m_alltoall_d                          1.760681                       2520   4
  377        orth1                                 1.713364                          420   3
  378        m_sumb_d                              1.270414                            6   3
  379        shift_bands_between_low_high          0.000007                            6   3
  380        lincom                                1.811707                            6   3
 
 Flat profile
 ============
 
             routine name                   CPU           calls
 ---------------------------------------------------------------
 edwav                                3566.705827         336
 potlok                                623.643805         349
 total_time                            481.839199           1
 m_alltoall_d                          368.335132      815500
 m_sumb_d                              301.941316      347669
 dfftw_execute                         288.517685      607716
 lincom                                263.786171        1028
 eddiag                                230.158982         181
 m_alltoallv_z                         224.025030      203264
 orth1                                 166.244550       48440
 fftbas_plan_mpi                       127.392278      202572
 choleski                              118.808398         343
 fft3d_mpi                              93.966176      202572
 ggaall_grid                            84.807495         580
 fftwav_mpi                             50.540417      125251
 eccp                                   45.675639       94080
 map_scatter                            42.245558      203264
 racc0                                  35.812892       23520
 map_forward                            35.132813      278628
 rpro1                                  34.064337       23520
 map_gather                             27.283528      203264
 pw_charge                              17.750860       40131
 setdij_                                15.370899         532
 force_and_stress                       12.630311           7
 vhamil                                 11.954030       25340
 augmentation_charge                    10.900721         343
 rpromu                                  9.201240        3185
 m_bcast_z                               9.117905        2381
 w1_dscal                                7.684112       23520
 redis_pw                                5.348101       96767
 rpromu_gemm                             4.993350      722995
 fftext_mpi                              3.448140       48860
 rspher_all                              3.200236          92
 orthch                                  3.049642         343
 forloc                                  2.836793           7
 forhar                                  2.811290           7
 redis_proj                              2.486016       74316
 stufak                                  1.840348           7
 overl                                   1.498636       24212
 m_bcast_d                               1.363291         379
 elmin_all                               1.278425           7
 map_backward                            1.080018      126516
 kinhamil                                0.832967       25340
 soft_charge                             0.799125         343
 densta                                  0.654594         344
 fftbrc_mpi                              0.637892      202572
 rsp                                     0.523336         705
 depsum                                  0.385257         343
 hamilt_local                            0.195947       25340
 pothar                                  0.178253         349
 rpro_isp                                0.166696          91
 strnlr                                  0.146951           7
 set_dd_paw                              0.111264         356
 wavpre_noio                             0.081538           6
 set_charge                              0.075979         343
 fewald                                  0.063532         705
 fft_gq                                  0.057699         343
 rcp                                     0.041499         705
 fornlr                                  0.039739           7
 strehar                                 0.039662           7
 strelo                                  0.036808           7
 strkin                                  0.036705           7
 redis_pw_all                            0.002234         336
 fordep                                  0.001631           7
 redis_pw_over_bands                     0.001416         349
 set_rsgf_all                            0.000793         356
 brgrid                                  0.000743           1
 potlok_metagga                          0.000415         349
 crpa_reader                             0.000268           1
 phaser                                  0.000186         259
 proall                                  0.000087           7
 rotate_active_occupied_orbital          0.000061           7
 vectorpot                               0.000031           1
 set_dd_magatom                          0.000030          14
 shift_bands_between_low_high            0.000016          13
 ---------------------------------------------------------------
  summed up times    7345.88494706154     
 
 Accumulative profile
 ====================
 
             routine name                   CPU           calls
 ---------------------------------------------------------------
 total_time                           7343.720299           1
 elmin_all                            6468.738262           7
 edwav                                5144.214511         336
 potlok                                948.747206         349
 fft3d_mpi                             838.116330      202572
 fftbrc_mpi                            744.150154      202572
 fftbas_plan_mpi                       743.512262      202572
 fftwav_mpi                            496.739938      125251
 orthch                                400.352986         343
 m_alltoall_d                          368.335132      815500
 eddiag                                365.241558         181
 m_sumb_d                              301.941316      347669
 dfftw_execute                         288.517685      607716
 lincom                                263.786171        1028
 m_alltoallv_z                         224.025030      203264
 map_forward                           210.374086      278628
 redis_proj                            200.839088       74316
 set_charge                            197.833187         343
 soft_charge                           181.570850         343
 redis_pw                              175.330161       96767
 orth1                                 166.244550       48440
 fftext_mpi                            148.053373       48860
 map_backward                          119.392860      126516
 choleski                              118.808398         343
 force_and_stress                       95.208423           7
 hamilt_local                           89.739429       25340
 ggaall_grid                            84.807495         580
 kinhamil                               77.589453       25340
 rpro_isp                               65.532463          91
 eccp                                   51.206341       94080
 racc0                                  48.550926       23520
 strnlr                                 48.091114           7
 map_scatter                            42.245558      203264
 rpro1                                  38.489213       23520
 redis_pw_over_bands                    28.115155         349
 redis_pw_all                           28.113739         336
 map_gather                             27.283528      203264
 setdij_                                20.726249         532
 pw_charge                              17.750860       40131
 fornlr                                 16.046247           7
 rpromu                                 15.789598        3185
 augmentation_charge                    15.489795         343
 vhamil                                 11.954030       25340
 m_bcast_z                               9.117905        2381
 w1_dscal                                7.684112       23520
 proall                                  5.081417           7
 rpromu_gemm                             4.993350      722995
 set_dd_paw                              4.462522         356
 densta                                  3.525749         344
 rspher_all                              3.200236          92
 forloc                                  2.888096           7
 forhar                                  2.858178           7
 fft_gq                                  1.870074         343
 stufak                                  1.840348           7
 wavpre_noio                             1.655859           6
 fordep                                  1.560322           7
 overl                                   1.498636       24212
 m_bcast_d                               1.363291         379
 fewald                                  0.845148         705
 depsum                                  0.696563         343
 pothar                                  0.602400         349
 rsp                                     0.523336         705
 strehar                                 0.043210           7
 rcp                                     0.041499         705
 strelo                                  0.040083           7
 strkin                                  0.039332           7
 set_rsgf_all                            0.000793         356
 brgrid                                  0.000743           1
 potlok_metagga                          0.000415         349
 crpa_reader                             0.000268           1
 phaser                                  0.000186         259
 rotate_active_occupied_orbital          0.000061           7
 vectorpot                               0.000031           1
 set_dd_magatom                          0.000030          14
 shift_bands_between_low_high            0.000016          13
 ---------------------------------------------------------------
 
Profiling took   5.273413  1.778272  0.007016  0.006339 seconds
Profiling took   5.990457 seconds
