 vasp.6.3.2 27Jun22 (build Jan 03 2024 23:25:20) gamma-only                     
  
 executed on           IFC15_impi date 2024.06.03  10:45:40
 running 2048 mpi-ranks, with    1 threads/rank
 distrk:  each k-point on 2048 cores,    1 groups
 distr:  one band on NCORE=  32 cores,   64 groups


--------------------------------------------------------------------------------------------------------


 INCAR:
   ENCUT = 500.000000
   SIGMA = 0.010000
   EDIFF = 1.00e-05
   ALGO = A
   ISMEAR = 0
   NELM = 2000
   NSW = 500
   NCORE = 32
   LCHARG = .FALSE.
   LWAVE = .FALSE.
   LREAL = Auto
   IBRION = 2
   EDIFFG = -0.05
   GGA = BF
   LUSE_VDW = .TRUE.
   ZAB_VDW = -1.8867
   LBEEFENS = .TRUE.
   DIPOL = 0.5 0.5 0.65
   IDIPOL = 3
   LDIPOL = .TRUE.

 POTCAR:    PAW_PBE Au 04Oct2007                  
 POTCAR:    PAW_PBE C 08Apr2002                   
 POTCAR:    PAW_PBE H 15Jun2001                   
 POTCAR:    PAW_PBE O 08Apr2002                   
 POTCAR:    PAW_PBE Sr_sv 07Sep2000               
 POTCAR:    PAW_PBE Ti_sv 26Sep2005               
 -----------------------------------------------------------------------------
|                                                                             |
|               ----> ADVICE to this user running VASP <----                  |
|                                                                             |
|     You have switched on vdW-DFT.                                           |
|     This routine was written and supplied by Jiri Klimes. We recommend      |
|     that you carefully read and cite the following publications:            |
|       J. Klimes, D.R. Bowler, A. Michelides                                 |
|          J. Phys.: Cond Matt. 22 022201 (2010)                              |
|       J. Klimes, D.R. Bowler, A. Michelides                                 |
|          Phys. Rev. B. 83, 195131 (2011)                                    |
|     and references therein.                                                 |
|                                                                             |
 -----------------------------------------------------------------------------

 POTCAR:    PAW_PBE Au 04Oct2007                  
   SHA256 =  d0044ae04e2bdce24051b198fc5c053d722a5bc6fe3c3b100514a13fc5d2db88 Au/POTCAR             
   COPYR  = (c) Copyright 04Oct2007 Georg Kresse                                                    
   COPYR  = This file is part of the software VASP. Any use, copying, and all other rights are regul
   COPYR  = If you do not have a valid VASP license, you may not use, copy or distribute this file. 
   VRHFIN =Au: s1d10                                                                                
   LEXCH  = PE                                                                                      
   EATOM  =   926.0867 eV,   68.0654 Ry                                                             
                                                                                                    
   TITEL  = PAW_PBE Au 04Oct2007                                                                    
   LULTRA =        F    use ultrasoft PP ?                                                          
   IUNSCR =        1    unscreen: 0-lin 1-nonlin 2-no                                               
   RPACOR =    2.330    partial core radius                                                         
   POMASS =  196.966; ZVAL   =   11.000    mass and valenz                                          
   RCORE  =    2.500    outmost cutoff radius                                                       
   RWIGS  =    2.840; RWIGS  =    1.503    wigner-seitz radius (au A)                               
   ENMAX  =  229.943; ENMIN  =  172.457 eV                                                          
   ICORE  =        3    local potential                                                             
   LCOR   =        T    correct aug charges                                                         
   LPAW   =        T    paw PP                                                                      
   EAUG   =  356.670                                                                                
   DEXC   =    0.000                                                                                
   RMAX   =    2.562    core radius for proj-oper                                                   
   RAUG   =    1.300    factor for augmentation sphere                                              
   RDEP   =    2.598    radius for radial grids                                                     
   RDEPT  =    2.193    core radius for aug-charge                                                  
                                                                                                    
   Atomic configuration                                                                             
   16 entries                                                                                       
     n  l   j            E        occ.                                                              
     1  0  0.50    -80748.5001   2.0000                                                             
     2  0  0.50    -14244.7466   2.0000                                                             
     2  1  1.50    -12310.9591   6.0000                                                             
     3  0  0.50     -3362.1768   2.0000                                                             
     3  1  1.50     -2801.5463   6.0000                                                             
     3  2  2.50     -2203.8206  10.0000                                                             
     4  0  0.50      -729.8168   2.0000                                                             
     4  1  1.50      -546.0527   6.0000                                                             
     4  2  2.50      -325.7302  10.0000                                                             
     4  3  3.50       -81.1472  14.0000                                                             
     5  0  0.50      -108.3201   2.0000                                                             
     5  1  1.50       -59.7479   6.0000                                                             
     5  2  2.50        -6.8783  10.0000                                                             
     6  0  0.50        -5.7602   1.0000                                                             
     6  1  1.50        -6.8029   0.0000                                                             
     5  3  2.50        -1.3606   0.0000                                                             
   Description                                                                                      
     l       E           TYP  RCUT    TYP  RCUT                                                     
     2     -6.8782861     23  2.500                                                                 
     2     -8.2388687     23  2.500                                                                 
     0     -5.7601759     23  2.500                                                                 
     0     -0.8493231     23  2.500                                                                 
     1     -2.7211652     23  2.500                                                                 
     1     27.2116520     23  2.500                                                                 
     3     -1.3605826     23  2.500                                                                 
  local pseudopotential read in
  partial core-charges read in
  partial kinetic energy density read in
  atomic valenz-charges read in
  non local Contribution for L=           2  read in
    real space projection operators read in
  non local Contribution for L=           2  read in
    real space projection operators read in
  non local Contribution for L=           0  read in
    real space projection operators read in
  non local Contribution for L=           0  read in
    real space projection operators read in
  non local Contribution for L=           1  read in
    real space projection operators read in
  non local Contribution for L=           1  read in
    real space projection operators read in
    PAW grid and wavefunctions read in
 
   number of l-projection  operators is LMAX  =           6
   number of lm-projection operators is LMMAX =          18
 
 POTCAR:    PAW_PBE C 08Apr2002                   
   SHA256 =  253f7b50bb8d59471dbedb8285d89021f4a42ed1a2c5d38a03a736e69125dd95 C/POTCAR              
   COPYR  = (c) Copyright 08Apr2002 Georg Kresse                                                    
   COPYR  = This file is part of the software VASP. Any use, copying, and all other rights are regul
   COPYR  = If you do not have a valid VASP license, you may not use, copy or distribute this file. 
   VRHFIN =C: s2p2                                                                                  
   LEXCH  = PE                                                                                      
   EATOM  =   147.1560 eV,   10.8157 Ry                                                             
                                                                                                    
   TITEL  = PAW_PBE C 08Apr2002                                                                     
   LULTRA =        F    use ultrasoft PP ?                                                          
   IUNSCR =        1    unscreen: 0-lin 1-nonlin 2-no                                               
   RPACOR =    1.200    partial core radius                                                         
   POMASS =   12.011; ZVAL   =    4.000    mass and valenz                                          
   RCORE  =    1.500    outmost cutoff radius                                                       
   RWIGS  =    1.630; RWIGS  =    0.863    wigner-seitz radius (au A)                               
   ENMAX  =  400.000; ENMIN  =  300.000 eV                                                          
   ICORE  =        2    local potential                                                             
   LCOR   =        T    correct aug charges                                                         
   LPAW   =        T    paw PP                                                                      
   EAUG   =  644.873                                                                                
   DEXC   =    0.000                                                                                
   RMAX   =    1.529    core radius for proj-oper                                                   
   RAUG   =    1.300    factor for augmentation sphere                                              
   RDEP   =    1.501    radius for radial grids                                                     
   RDEPT  =    1.300    core radius for aug-charge                                                  
                                                                                                    
   Atomic configuration                                                                             
    4 entries                                                                                       
     n  l   j            E        occ.                                                              
     1  0  0.50      -273.3789   2.0000                                                             
     2  0  0.50       -13.7508   2.0000                                                             
     2  1  0.50        -5.2854   2.0000                                                             
     3  2  1.50        -5.4423   0.0000                                                             
   Description                                                                                      
     l       E           TYP  RCUT    TYP  RCUT                                                     
     0    -13.7508458     23  1.200                                                                 
     0     -8.2022199     23  1.200                                                                 
     1     -5.2854383     23  1.500                                                                 
     1     34.0145650     23  1.500                                                                 
     2     -5.4423304      7  1.500                                                                 
  local pseudopotential read in
  partial core-charges read in
  partial kinetic energy density read in
  atomic valenz-charges read in
  non local Contribution for L=           0  read in
    real space projection operators read in
  non local Contribution for L=           0  read in
    real space projection operators read in
  non local Contribution for L=           1  read in
    real space projection operators read in
  non local Contribution for L=           1  read in
    real space projection operators read in
    PAW grid and wavefunctions read in
 
   number of l-projection  operators is LMAX  =           4
   number of lm-projection operators is LMMAX =           8
 
 POTCAR:    PAW_PBE H 15Jun2001                   
   SHA256 =  030f79b5d3ab3cf0e668861823c8fb652ff669f3e15e46930bd03bfd63a607b6 H/POTCAR              
   COPYR  = (c) Copyright 15Jun2001 Georg Kresse                                                    
   COPYR  = This file is part of the software VASP. Any use, copying, and all other rights are regul
   COPYR  = If you do not have a valid VASP license, you may not use, copy or distribute this file. 
   VRHFIN =H: ultrasoft test                                                                        
   LEXCH  = PE                                                                                      
   EATOM  =    12.4884 eV,    0.9179 Ry                                                             
                                                                                                    
   TITEL  = PAW_PBE H 15Jun2001                                                                     
   LULTRA =        F    use ultrasoft PP ?                                                          
   IUNSCR =        0    unscreen: 0-lin 1-nonlin 2-no                                               
   RPACOR =    0.000    partial core radius                                                         
   POMASS =    1.000; ZVAL   =    1.000    mass and valenz                                          
   RCORE  =    1.100    outmost cutoff radius                                                       
   RWIGS  =    0.700; RWIGS  =    0.370    wigner-seitz radius (au A)                               
   ENMAX  =  250.000; ENMIN  =  200.000 eV                                                          
   RCLOC  =    0.701    cutoff for local pot                                                        
   LCOR   =        T    correct aug charges                                                         
   LPAW   =        T    paw PP                                                                      
   EAUG   =  400.000                                                                                
   RMAX   =    1.123    core radius for proj-oper                                                   
   RAUG   =    1.200    factor for augmentation sphere                                              
   RDEP   =    1.112    radius for radial grids                                                     
   RDEPT  =    0.926    core radius for aug-charge                                                  
                                                                                                    
   Atomic configuration                                                                             
    2 entries                                                                                       
     n  l   j            E        occ.                                                              
     1  0  0.50        -6.4927   1.0000                                                             
     2  1  0.50        -3.4015   0.0000                                                             
   Description                                                                                      
     l       E           TYP  RCUT    TYP  RCUT                                                     
     0     -6.4927494     23  1.100                                                                 
     0      6.8029130     23  1.100                                                                 
     1     -4.0817478     23  1.100                                                                 
  local pseudopotential read in
  atomic valenz-charges read in
  non local Contribution for L=           0  read in
    real space projection operators read in
  non local Contribution for L=           0  read in
    real space projection operators read in
  non local Contribution for L=           1  read in
    real space projection operators read in
    PAW grid and wavefunctions read in
 
   number of l-projection  operators is LMAX  =           3
   number of lm-projection operators is LMMAX =           5
 
 POTCAR:    PAW_PBE O 08Apr2002                   
   SHA256 =  818f92134a0a090dccd8ba1447fa70422a3b330e708bb4f08108d8ae51209ddf O/POTCAR              
   COPYR  = (c) Copyright 08Apr2002 Georg Kresse                                                    
   COPYR  = This file is part of the software VASP. Any use, copying, and all other rights are regul
   COPYR  = If you do not have a valid VASP license, you may not use, copy or distribute this file. 
   VRHFIN =O: s2p4                                                                                  
   LEXCH  = PE                                                                                      
   EATOM  =   432.3788 eV,   31.7789 Ry                                                             
                                                                                                    
   TITEL  = PAW_PBE O 08Apr2002                                                                     
   LULTRA =        F    use ultrasoft PP ?                                                          
   IUNSCR =        1    unscreen: 0-lin 1-nonlin 2-no                                               
   RPACOR =    1.200    partial core radius                                                         
   POMASS =   16.000; ZVAL   =    6.000    mass and valenz                                          
   RCORE  =    1.520    outmost cutoff radius                                                       
   RWIGS  =    1.550; RWIGS  =    0.820    wigner-seitz radius (au A)                               
   ENMAX  =  400.000; ENMIN  =  300.000 eV                                                          
   ICORE  =        2    local potential                                                             
   LCOR   =        T    correct aug charges                                                         
   LPAW   =        T    paw PP                                                                      
   EAUG   =  605.392                                                                                
   DEXC   =    0.000                                                                                
   RMAX   =    1.553    core radius for proj-oper                                                   
   RAUG   =    1.300    factor for augmentation sphere                                              
   RDEP   =    1.550    radius for radial grids                                                     
   RDEPT  =    1.329    core radius for aug-charge                                                  
                                                                                                    
   Atomic configuration                                                                             
    4 entries                                                                                       
     n  l   j            E        occ.                                                              
     1  0  0.50      -514.6923   2.0000                                                             
     2  0  0.50       -23.9615   2.0000                                                             
     2  1  0.50        -9.0305   4.0000                                                             
     3  2  1.50        -9.5241   0.0000                                                             
   Description                                                                                      
     l       E           TYP  RCUT    TYP  RCUT                                                     
     0    -23.9615318     23  1.200                                                                 
     0     -9.5240782     23  1.200                                                                 
     1     -9.0304911     23  1.520                                                                 
     1      8.1634956     23  1.520                                                                 
     2     -9.5240782      7  1.500                                                                 
  local pseudopotential read in
  partial core-charges read in
  partial kinetic energy density read in
  kinetic energy density of atom read in
  atomic valenz-charges read in
  non local Contribution for L=           0  read in
    real space projection operators read in
  non local Contribution for L=           0  read in
    real space projection operators read in
  non local Contribution for L=           1  read in
    real space projection operators read in
  non local Contribution for L=           1  read in
    real space projection operators read in
    PAW grid and wavefunctions read in
 
   number of l-projection  operators is LMAX  =           4
   number of lm-projection operators is LMMAX =           8
 
 POTCAR:    PAW_PBE Sr_sv 07Sep2000               
   SHA256 =  a8389d3481648516ee67182ee030b298d280b37e29cbbf2d8595f040d757c710 Sr_sv/POTCAR          
   COPYR  = (c) Copyright 07Sep2000 Georg Kresse                                                    
   COPYR  = This file is part of the software VASP. Any use, copying, and all other rights are regul
   COPYR  = If you do not have a valid VASP license, you may not use, copy or distribute this file. 
   VRHFIN =Sr: 4s4p5s                                                                               
   LEXCH  = PE                                                                                      
   EATOM  =   843.0319 eV,   61.9611 Ry                                                             
                                                                                                    
   TITEL  = PAW_PBE Sr_sv 07Sep2000                                                                 
   LULTRA =        F    use ultrasoft PP ?                                                          
   IUNSCR =        1    unscreen: 0-lin 1-nonlin 2-no                                               
   RPACOR =    2.200    partial core radius                                                         
   POMASS =   87.620; ZVAL   =   10.000    mass and valenz                                          
   RCORE  =    2.500    outmost cutoff radius                                                       
   RWIGS  =    4.040; RWIGS  =    2.138    wigner-seitz radius (au A)                               
   ENMAX  =  229.353; ENMIN  =  172.014 eV                                                          
   RCLOC  =    2.201    cutoff for local pot                                                        
   LCOR   =        T    correct aug charges                                                         
   LPAW   =        T    paw PP                                                                      
   EAUG   =  366.804                                                                                
   DEXC   =    0.000                                                                                
   RMAX   =    2.547    core radius for proj-oper                                                   
   RAUG   =    1.300    factor for augmentation sphere                                              
   RDEP   =    2.562    radius for radial grids                                                     
   RDEPT  =    2.128    core radius for aug-charge                                                  
                                                                                                    
   Atomic configuration                                                                             
   10 entries                                                                                       
     n  l   j            E        occ.                                                              
     1  0  0.50    -15934.8930   2.0000                                                             
     2  0  0.50     -2157.6250   2.0000                                                             
     2  1  1.50     -1917.0034   6.0000                                                             
     3  0  0.50      -333.7288   2.0000                                                             
     3  1  1.50      -256.0992   6.0000                                                             
     3  2  2.50      -127.9971  10.0000                                                             
     4  0  0.50       -40.8953   2.0000                                                             
     5  0  0.50        -3.5257   1.9990                                                             
     4  1  1.50       -22.8179   6.0000                                                             
     4  2  1.50        -1.2815   0.0010                                                             
   Description                                                                                      
     l       E           TYP  RCUT    TYP  RCUT                                                     
     0    -40.8953213     23  2.480                                                                 
     0     -3.5257161     23  2.480                                                                 
     1    -22.8178632     23  2.500                                                                 
     1    -24.1784458     23  2.500                                                                 
     2     -1.2814598     23  2.500                                                                 
     2      0.2279365     23  2.500                                                                 
  local pseudopotential read in
  partial core-charges read in
  partial kinetic energy density read in
  atomic valenz-charges read in
  non local Contribution for L=           0  read in
    real space projection operators read in
  non local Contribution for L=           0  read in
    real space projection operators read in
  non local Contribution for L=           1  read in
    real space projection operators read in
  non local Contribution for L=           1  read in
    real space projection operators read in
  non local Contribution for L=           2  read in
    real space projection operators read in
  non local Contribution for L=           2  read in
    real space projection operators read in
    PAW grid and wavefunctions read in
 
   number of l-projection  operators is LMAX  =           6
   number of lm-projection operators is LMMAX =          18
 
 POTCAR:    PAW_PBE Ti_sv 26Sep2005               
   SHA256 =  4d747badb5a5ea28d858fbac70885b3f8929d6fd9e5b0dbe1ecb9878dc164da1 Ti_sv/POTCAR          
   COPYR  = (c) Copyright 26Sep2005 Georg Kresse                                                    
   COPYR  = This file is part of the software VASP. Any use, copying, and all other rights are regul
   COPYR  = If you do not have a valid VASP license, you may not use, copy or distribute this file. 
   VRHFIN =Ti: 3p4s3d                                                                               
   LEXCH  = PE                                                                                      
   EATOM  =  1588.0892 eV,  116.7213 Ry                                                             
                                                                                                    
   TITEL  = PAW_PBE Ti_sv 26Sep2005                                                                 
   LULTRA =        F    use ultrasoft PP ?                                                          
   IUNSCR =        1    unscreen: 0-lin 1-nonlin 2-no                                               
   RPACOR =    2.000    partial core radius                                                         
   POMASS =   47.880; ZVAL   =   12.000    mass and valenz                                          
   RCORE  =    2.300    outmost cutoff radius                                                       
   RWIGS  =    2.300; RWIGS  =    1.217    wigner-seitz radius (au A)                               
   ENMAX  =  274.610; ENMIN  =  205.957 eV                                                          
   ICORE  =        3    local potential                                                             
   LCOR   =        T    correct aug charges                                                         
   LPAW   =        T    paw PP                                                                      
   EAUG   =  482.848                                                                                
   RMAX   =    2.348    core radius for proj-oper                                                   
   RAUG   =    1.300    factor for augmentation sphere                                              
   RDEP   =    2.381    radius for radial grids                                                     
   RDEPT  =    1.930    core radius for aug-charge                                                  
                                                                                                    
   Atomic configuration                                                                             
    8 entries                                                                                       
     n  l   j            E        occ.                                                              
     1  0  0.50     -4865.3608   2.0000                                                             
     2  0  0.50      -533.1368   2.0000                                                             
     2  1  1.50      -440.5031   6.0000                                                             
     3  0  0.50       -59.3186   2.0000                                                             
     4  0  0.50        -3.7291   1.0000                                                             
     3  1  1.50       -35.7012   6.0000                                                             
     3  2  2.50        -1.9157   3.0000                                                             
     4  3  2.50        -1.3606   0.0000                                                             
   Description                                                                                      
     l       E           TYP  RCUT    TYP  RCUT                                                     
     0    -59.3185931     23  1.800                                                                 
     0     -3.7290822     23  2.300                                                                 
     1    -35.7012045     23  2.300                                                                 
     1     -1.3605826     23  2.300                                                                 
     2     -1.9156920     23  2.300                                                                 
     2     -0.0236318     23  2.300                                                                 
     3     -1.3605826     23  2.300                                                                 
  local pseudopotential read in
  partial core-charges read in
  partial kinetic energy density read in
  atomic valenz-charges read in
  non local Contribution for L=           0  read in
    real space projection operators read in
  non local Contribution for L=           0  read in
    real space projection operators read in
  non local Contribution for L=           1  read in
    real space projection operators read in
  non local Contribution for L=           1  read in
    real space projection operators read in
  non local Contribution for L=           2  read in
    real space projection operators read in
  non local Contribution for L=           2  read in
    real space projection operators read in
    PAW grid and wavefunctions read in
 
   number of l-projection  operators is LMAX  =           6
   number of lm-projection operators is LMMAX =          18
 
 Optimization of the real space projectors (new method)

 maximal supplied QI-value         = 15.12
 optimisation between [QCUT,QGAM] = [ 11.34, 22.83] = [ 36.00,145.93] Ry 
 Optimized for a Real-space Cutoff    1.39 Angstroem

   l    n(q)    QCUT    max X(q) W(low)/X(q) W(high)/X(q)  e(spline) 
   2      9    11.338    60.898    0.39E-03    0.42E-03    0.21E-06
   2      9    11.338    58.894    0.40E-03    0.42E-03    0.22E-06
   0      9    11.338   109.617    0.13E-03    0.20E-04    0.13E-06
   0      9    11.338    75.026    0.13E-03    0.20E-04    0.13E-06
   1      9    11.338    16.344    0.33E-04    0.24E-03    0.18E-06
   1      9    11.338    10.160    0.26E-04    0.19E-03    0.15E-06
 Optimization of the real space projectors (new method)

 maximal supplied QI-value         = 25.13
 optimisation between [QCUT,QGAM] = [ 11.31, 22.87] = [ 35.82,146.48] Ry 
 Optimized for a Real-space Cutoff    1.00 Angstroem

   l    n(q)    QCUT    max X(q) W(low)/X(q) W(high)/X(q)  e(spline) 
   0      7    11.310   115.676    0.43E-03    0.13E-02    0.19E-06
   0      7    11.310    87.132    0.43E-03    0.13E-02    0.18E-06
   1      6    11.310     4.429    0.42E-03    0.74E-03    0.11E-06
   1      6    11.310     2.733    0.34E-03    0.55E-03    0.92E-07
 Optimization of the real space projectors (new method)

 maximal supplied QI-value         = 34.20
 optimisation between [QCUT,QGAM] = [ 11.29, 22.57] = [ 35.68,142.71] Ry 
 Optimized for a Real-space Cutoff    1.16 Angstroem

   l    n(q)    QCUT    max X(q) W(low)/X(q) W(high)/X(q)  e(spline) 
   0      8    11.287    19.460    0.40E-03    0.73E-03    0.16E-06
   0      8    11.287    12.209    0.38E-03    0.70E-03    0.15E-06
   1      7    11.287     4.655    0.22E-03    0.25E-04    0.22E-06
 Optimization of the real space projectors (new method)

 maximal supplied QI-value         = 24.76
 optimisation between [QCUT,QGAM] = [ 11.39, 22.77] = [ 36.31,145.25] Ry 
 Optimized for a Real-space Cutoff    1.00 Angstroem

   l    n(q)    QCUT    max X(q) W(low)/X(q) W(high)/X(q)  e(spline) 
   0      7    11.387    20.381    0.39E-03    0.13E-02    0.15E-06
   0      7    11.387    15.268    0.42E-03    0.14E-02    0.17E-06
   1      6    11.387     5.964    0.41E-03    0.11E-02    0.17E-06
   1      6    11.387     5.382    0.39E-03    0.87E-03    0.15E-06
 Optimization of the real space projectors (new method)

 maximal supplied QI-value         = 15.12
 optimisation between [QCUT,QGAM] = [ 11.34, 22.83] = [ 36.00,145.93] Ry 
 Optimized for a Real-space Cutoff    1.56 Angstroem

   l    n(q)    QCUT    max X(q) W(low)/X(q) W(high)/X(q)  e(spline) 
   0     11    11.338    11.565    0.26E-04    0.80E-05    0.70E-07
   0     11    11.338    10.214    0.41E-04    0.15E-04    0.15E-06
   1     10    11.338   189.983    0.18E-03    0.52E-04    0.42E-06
   1     10    11.338   193.105    0.19E-03    0.52E-04    0.42E-06
   2     10    11.338   115.941    0.22E-03    0.42E-03    0.43E-06
   2     10    11.338    76.444    0.21E-03    0.41E-03    0.42E-06
 Optimization of the real space projectors (new method)

 maximal supplied QI-value         = 16.25
 optimisation between [QCUT,QGAM] = [ 11.38, 22.75] = [ 36.24,144.96] Ry 
 Optimized for a Real-space Cutoff    1.27 Angstroem

   l    n(q)    QCUT    max X(q) W(low)/X(q) W(high)/X(q)  e(spline) 
   0      9    11.376    12.277    0.53E-04    0.25E-04    0.25E-07
   0      9    11.376    11.419    0.89E-04    0.67E-05    0.35E-07
   1      8    11.376     4.010    0.13E-03    0.11E-03    0.29E-07
   1      8    11.376     6.182    0.94E-04    0.19E-03    0.11E-06
   2      8    11.376    47.177    0.13E-03    0.88E-03    0.24E-06
   2      8    11.376    42.437    0.13E-03    0.86E-03    0.23E-06
 -----------------------------------------------------------------------------
|                                                                             |
|               ----> ADVICE to this user running VASP <----                  |
|                                                                             |
|     You enforced a specific xc type in the INCAR file but a different       |
|     type was found in the POTCAR file.                                      |
|     I HOPE YOU KNOW WHAT YOU ARE DOING!                                     |
|                                                                             |
 -----------------------------------------------------------------------------

  PAW_PBE Au 04Oct2007                  :
 energy of atom  1       EATOM= -926.0867
 kinetic energy error for atom=    0.0042 (will be added to EATOM!!)
  PAW_PBE C 08Apr2002                   :
 energy of atom  2       EATOM= -147.1560
 kinetic energy error for atom=    0.0076 (will be added to EATOM!!)
  PAW_PBE H 15Jun2001                   :
 energy of atom  3       EATOM=  -12.4884
 kinetic energy error for atom=    0.0020 (will be added to EATOM!!)
  PAW_PBE O 08Apr2002                   :
 energy of atom  4       EATOM= -432.3788
 kinetic energy error for atom=    0.0224 (will be added to EATOM!!)
  PAW_PBE Sr_sv 07Sep2000               :
 energy of atom  5       EATOM= -843.0319
 kinetic energy error for atom=    0.0012 (will be added to EATOM!!)
  PAW_PBE Ti_sv 26Sep2005               :
 energy of atom  6       EATOM=-1588.0892
 kinetic energy error for atom=    0.0046 (will be added to EATOM!!)
 
 
 POSCAR: Au  C  H  O Sr Ti
  positions in direct lattice
  velocities in cartesian coordinates
 exchange correlation table for  LEXCH =       17
   RHO(1)=    0.500       N(1)  =     2000
   RHO(2)=  100.500       N(2)  =     4000

 VTST: version 4.1, (05/19/21)

 CHAIN: initializing optimizer
 
 OPT: Using VASP Conjugate-Gradient optimizer
 CHAIN: Read ICHAIN            0
 
 POSCAR: Au  C  H  O Sr Ti
  positions in direct lattice
  velocities in cartesian coordinates
 


--------------------------------------------------------------------------------------------------------


 ion  position               nearest neighbor table
   1  0.712  0.625  0.755-  50 2.69  46 2.73  12 2.78  43 2.81  45 2.81  20 2.89  14 3.05   5 3.52

   2  0.663  0.343  0.740-  54 2.12  42 2.68  41 2.85  33 3.04  37 3.56 455 4.18
   3  0.472  0.560  0.877-  35 2.74  47 2.75  19 2.80   8 2.81  27 2.83
   4  0.282  0.472  0.702- 184 2.06  49 2.77  23 2.81   6 2.92  31 3.06 426 3.53 394 4.07
   5  0.670  0.746  0.749-  21 2.62  50 2.67  30 2.73  46 2.76  45 3.04  11 3.04  16 3.39   1 3.52

   6  0.398  0.506  0.691- 107 2.03 158 2.12  49 2.78  48 2.88   4 2.92  23 3.01  17 3.03  26 3.16
                           426 3.40  34 3.60  40 3.60 471 3.79
   7  0.451  0.664  0.704- 178 2.11  29 2.68  34 2.69  22 2.73  16 2.87  17 2.87  48 3.02 472 3.64

   8  0.375  0.594  0.833-   3 2.81   9 2.81  23 2.84  17 2.85  10 2.86  19 2.88  47 3.06
   9  0.289  0.630  0.778-  32 2.81   8 2.81  31 2.81  23 2.89  24 2.89  10 2.89  48 2.91
  10  0.368  0.695  0.820-  32 2.75  19 2.77  38 2.85   8 2.86   9 2.89  18 3.00  29 3.56
  11  0.597  0.827  0.713- 157 2.09  21 2.79  30 2.81  44 2.91  16 2.93   5 3.04 396 4.18
  12  0.775  0.553  0.794-  43 2.72   1 2.78  13 2.82  20 2.92
  13  0.694  0.486  0.764-  52 2.11  37 2.80  20 2.81  33 2.82  12 2.82  43 3.00  14 3.06  42 3.43

  14  0.646  0.557  0.696- 187 2.17  43 2.75  37 2.87  45 2.90  39 3.00   1 3.05  13 3.06  34 3.29
                           411 3.51  26 3.52
  15  0.561  0.715  0.865-  46 2.78  30 2.80  38 2.82  19 2.83  35 2.88  29 2.98
  16  0.540  0.735  0.702- 186 2.11  29 2.76   7 2.87  45 2.88  11 2.93  22 2.99  44 3.15  30 3.15
                             5 3.39 472 3.49
  17  0.443  0.579  0.757-  39 2.83   8 2.85  26 2.86   7 2.87  34 2.89  47 2.90  48 2.91   6 3.03
                            23 3.11  29 3.41
  18  0.374  0.793  0.779-  22 2.77  32 2.77  38 2.79  25 2.80  44 2.86  10 3.00  28 3.11
  19  0.460  0.659  0.865-  10 2.77   3 2.80  15 2.83  35 2.86   8 2.88  29 2.94  38 2.95
  20  0.656  0.563  0.817-  35 2.80  13 2.81  39 2.87   1 2.89  27 2.90  12 2.92  46 3.16
  21  0.707  0.806  0.688- 175 2.04 223 2.06   5 2.62  11 2.79 564 3.11  50 3.20 396 3.80 463 4.19

  22  0.416  0.757  0.700- 163 2.03   7 2.73  18 2.77  25 2.78  44 2.94  16 2.99  28 3.10 427 4.02
                           472 4.11
  23  0.325  0.532  0.769-   4 2.81  49 2.82   8 2.84   9 2.89  48 2.92  31 2.96  47 3.00   6 3.01
                            17 3.11
  24  0.257  0.675  0.695- 218 2.03 179 2.11  32 2.69  31 2.83   9 2.89  48 3.01  28 3.55 427 3.56
                           408 3.70
  25  0.392  0.854  0.707- 119 2.08  22 2.78  18 2.80  44 2.82  28 2.82 413 3.67 409 4.11
  26  0.520  0.503  0.733-  39 2.82  36 2.83  17 2.86  34 2.89  37 2.89  27 2.92   6 3.16  47 3.26
                            33 3.27  14 3.52 471 4.14
  27  0.552  0.508  0.827-   3 2.83  33 2.86  20 2.90  26 2.92  47 2.93  39 3.03  35 3.06  36 3.39

  28  0.294  0.798  0.697- 179 2.07 217 2.07  32 2.78  25 2.82  22 3.10  18 3.11  24 3.55 413 4.18
                           427 4.20
  29  0.508  0.685  0.778-   7 2.68  16 2.76  38 2.84  39 2.94  19 2.94  46 2.98  15 2.98  30 3.12
                            17 3.41  35 3.46  45 3.55  10 3.56
  30  0.578  0.779  0.794-  44 2.73   5 2.73  15 2.80  11 2.81  38 3.05  29 3.12  16 3.15  46 3.23

  31  0.240  0.575  0.709-  92 2.12  48 2.68   9 2.81  24 2.83  23 2.96   4 3.06 394 4.18
  32  0.285  0.730  0.764-  24 2.69  10 2.75  18 2.77  28 2.78   9 2.81
  33  0.602  0.427  0.784-  37 2.76  36 2.78  13 2.82  27 2.86  41 2.95   2 3.04  26 3.27
  34  0.514  0.588  0.678- 187 2.11 131 2.15   7 2.69  39 2.80  26 2.89  17 2.89 519 3.14  45 3.28
                            14 3.29 471 3.56   6 3.60 472 4.01
  35  0.567  0.612  0.859-   3 2.74  20 2.80  46 2.83  19 2.86  15 2.88  39 2.91  27 3.06  29 3.46

  36  0.486  0.417  0.774-  40 2.74  33 2.78  26 2.83  41 2.83  49 2.86  47 2.87  27 3.39
  37  0.619  0.456  0.698- 220 2.04  33 2.76  13 2.80  41 2.85  14 2.87  26 2.89  42 3.25 411 3.53
                             2 3.56 471 4.25
  38  0.461  0.759  0.833-  18 2.79  15 2.82  29 2.84  10 2.85  19 2.95  44 2.96  30 3.05
  39  0.562  0.592  0.763-  34 2.80  26 2.82  17 2.83  20 2.87  35 2.91  45 2.92  29 2.94  46 2.98
                            14 3.00  27 3.03
  40  0.436  0.381  0.698- 106 2.01 158 2.14  36 2.74  41 2.81  49 2.84   6 3.60 453 3.93 447 4.28

  41  0.554  0.371  0.709- 181 2.10  40 2.81  36 2.83   2 2.85  37 2.85  33 2.95 453 3.92
  42  0.737  0.396  0.694-  52 2.02 166 2.03 141 2.05   2 2.68 514 3.05  37 3.25  13 3.43 455 4.14
                           464 4.33
  43  0.761  0.551  0.704- 155 2.00  12 2.72  14 2.75   1 2.81  13 3.00 446 3.81 411 4.18
  44  0.486  0.821  0.755-  30 2.73  25 2.82  18 2.86  11 2.91  22 2.94  38 2.96  16 3.15
  45  0.620  0.658  0.704- 238 2.08   1 2.81  50 2.85  16 2.88  14 2.90  39 2.92  46 2.96   5 3.04
                            34 3.28  29 3.55 463 3.69
  46  0.630  0.672  0.801-   1 2.73   5 2.76  15 2.78  35 2.83  45 2.96  29 2.98  39 2.98  20 3.16
                            30 3.23
  47  0.430  0.497  0.815-   3 2.75  49 2.79  36 2.87  17 2.90  27 2.93  23 3.00   8 3.06  26 3.26

  48  0.349  0.600  0.698- 178 2.11  31 2.68   6 2.88  17 2.91   9 2.91  23 2.92  24 3.01   7 3.02
                           427 4.16 426 4.27
  49  0.370  0.439  0.756-   4 2.77   6 2.78  47 2.79  23 2.82  40 2.84  36 2.86
  50  0.732  0.693  0.693- 173 2.09 223 2.11   5 2.67   1 2.69  45 2.85  21 3.20 463 3.39 424 3.70

  51  0.645  0.240  0.792-  58 1.09  59 1.09  57 1.09  53 1.53
  52  0.755  0.433  0.750-  62 1.09  63 1.09  42 2.02  13 2.11
  53  0.693  0.241  0.757-  60 1.09  55 1.10  54 1.52  51 1.53
  54  0.723  0.289  0.752-  61 1.09  56 1.09  53 1.52   2 2.12
  55  0.726  0.216  0.767-  53 1.10
  56  0.744  0.301  0.783-  54 1.09
  57  0.658  0.257  0.823-  51 1.09
  58  0.632  0.204  0.798-  51 1.09
  59  0.608  0.260  0.779-  51 1.09
  60  0.678  0.229  0.725-  53 1.09
  61  0.752  0.289  0.724-  54 1.09
  62  0.754  0.411  0.780-  52 1.09
  63  0.795  0.452  0.747-  52 1.09
  64  0.167  0.800  0.407- 572 1.97 553 1.97 443 2.79 395 2.79 418 2.89
  65  0.582  0.348  0.551- 521 1.96 555 1.97 417 2.78 432 2.87 453 2.88 455 2.95
  66  0.000  0.802  0.593- 491 1.96 490 1.96 465 2.58 451 2.88 441 3.05
  67  0.334  0.200  0.592- 497 2.00 499 2.01 405 2.59 447 2.76 436 2.94
  68  1.000  0.200  0.592- 522 1.99 508 2.01 466 2.59 397 2.87 461 2.92
  69  0.001  0.398  0.592- 500 1.95 515 1.99 439 2.59 397 2.92 454 2.97
  70  0.084  0.950  0.546- 495 1.84 542 2.19 475 2.68 483 2.71 431 3.22 451 3.36
  71  0.420  0.652  0.556- 489 1.89 496 2.14 472 2.65 427 2.70 433 2.93 402 3.04
  72  0.084  0.348  0.642- 515 1.79 428 2.49 397 2.50
  73  0.918  0.651  0.547- 492 1.85 548 2.23 404 2.69 459 2.74 424 2.88 441 3.35
  74  0.253  0.850  0.551- 520 1.82 504 2.08 401 2.78 413 2.87 418 2.88 431 3.19
  75  0.586  0.852  0.551- 527 1.94 502 2.07 420 2.76 421 2.81 396 2.89 409 2.99
  76  0.750  0.452  0.551- 509 1.97 514 1.97 411 2.60 432 2.84 423 2.90 446 2.92
  77  0.581  0.648  0.549- 519 1.88 525 2.09 472 2.71 433 2.73 463 2.84 412 2.86
  78  0.416  0.455  0.553- 534 1.96 550 1.98 471 2.69 426 2.74 417 2.97 415 2.97
  79  0.577  0.548  0.552- 519 1.94 551 2.06 471 2.62 433 2.77 411 2.94 412 3.04
  80  0.417  0.253  0.547- 511 1.84 497 2.25 405 2.77 407 2.77 453 2.94 447 3.04
  81  0.000  0.800  0.407- 524 1.97 553 1.97 406 2.79 410 2.79 465 2.99
  82  0.500  0.301  0.500- 555 1.98 511 1.99 417 2.70 422 2.80 407 2.86 453 3.16
  83  0.416  0.948  0.547- 554 1.84 544 2.26 477 2.74 478 2.76 413 2.86 409 3.03
  84  0.085  0.850  0.547- 495 1.85 491 2.18 418 2.65 465 2.72 431 3.19 451 3.36
  85  0.583  0.550  0.361- 532 1.97 442 2.79 416 2.79
  86  0.583  0.750  0.361- 573 1.97 450 2.79 467 2.79
  87  0.086  0.451  0.547- 484 1.84 515 2.27 414 2.69 439 2.75 394 2.88 454 3.36
  88  0.917  0.350  0.361- 565 1.97 474 2.79 440 2.79
  89  0.917  0.550  0.361- 556 1.97 452 2.79 449 2.79
  90  0.252  0.945  0.637- 545 1.81 431 2.47 413 2.51
  91  0.250  0.048  0.642- 545 1.80 458 2.51 436 2.51
  92  0.240  0.553  0.642- 506 1.89  31 2.12 394 2.62 426 2.95
  93  0.916  0.850  0.546- 493 1.85 490 2.17 470 2.67 465 2.70 457 3.24 451 3.35
  94  0.249  0.746  0.552- 520 1.97 569 1.97 427 2.72 408 2.87 418 2.91 401 2.94
  95  0.748  0.948  0.547- 498 1.84 543 2.23 476 2.75 460 2.79 396 2.92 457 3.20
  96  0.751  0.745  0.553- 564 1.96 559 1.97 463 2.65 424 2.87 470 2.96 420 2.98
  97  0.916  0.950  0.546- 493 1.84 546 2.19 460 2.69 483 2.71 457 3.22 451 3.36
  98  0.418  0.252  0.639- 497 1.81 447 2.52 453 2.55
  99  0.584  0.951  0.546- 527 1.84 536 2.23 476 2.69 478 2.71 396 2.95 409 3.07
 100  0.083  0.250  0.547- 513 1.84 508 2.20 466 2.70 425 2.72 397 3.24 428 3.29
 101  0.417  0.948  0.454- 554 1.97 487 2.03 430 2.76 400 2.78 478 2.90 477 2.92
 102  0.583  0.250  0.546- 555 1.84 517 2.25 407 2.71 419 2.71 453 2.97 455 3.00
 103  0.081  0.652  0.547- 505 1.84 566 2.23 404 2.69 456 2.77 408 2.85 441 3.34
 104  0.249  0.451  0.546- 557 1.85 518 2.29 426 2.66 414 2.72 415 2.74 394 3.03
 105  0.501  0.805  0.593- 502 1.99 503 2.01 421 2.66 409 2.72 472 2.94
 106  0.418  0.350  0.640- 534 1.99  40 2.01 453 2.64 447 2.65
 107  0.416  0.534  0.630-   6 2.03 489 2.08 471 2.54 426 2.60
 108  0.084  0.949  0.641- 542 1.80 431 2.48 451 2.49
 109  0.084  0.750  0.640- 491 1.79 441 2.48 408 2.51
 110  0.084  0.248  0.642- 508 1.80 397 2.50 428 2.50
 111  0.833  0.602  0.590- 501 1.83 548 2.06 459 2.60 424 2.80 446 2.97
 112  0.171  0.800  0.595- 520 1.86 491 2.13 418 2.74 408 2.76 431 2.88
 113  0.087  0.549  0.640- 566 1.79 394 2.51 454 2.52
 114  0.583  0.949  0.454- 533 2.01 527 2.04 430 2.76 429 2.79 478 2.90 476 2.91
 115  0.335  0.404  0.593- 534 1.90 518 2.06 426 2.65 415 2.72 447 3.05
 116  0.665  0.793  0.591- 502 1.95 564 2.07 463 2.58 420 2.67 396 3.11
 117  0.666  0.596  0.591- 519 1.81 501 2.13 412 2.72 411 2.73 463 2.94
 118  0.167  0.200  0.592- 499 1.99 508 2.00 425 2.59 428 2.89 458 2.93
 119  0.413  0.850  0.639- 503 1.94  25 2.08 413 2.62 409 2.68
 120  0.168  0.398  0.593- 518 1.94 515 2.04 414 2.61 394 2.79 428 2.90
 121  0.248  0.549  0.549- 506 1.94 557 1.98 426 2.66 402 2.81 456 2.84 394 3.04
 122  0.583  0.449  0.546- 551 1.91 521 2.08 417 2.72 432 2.76 471 2.77 411 2.92
 123  0.087  0.650  0.640- 566 1.80 441 2.50 408 2.53
 124  0.666  0.899  0.499- 527 1.97 498 2.01 420 2.73 429 2.75 476 2.86 396 3.22
 125  0.084  0.449  0.641- 515 1.80 454 2.49 394 2.51
 126  0.914  0.751  0.546- 492 1.85 490 2.23 470 2.67 465 2.73 424 2.83 441 3.47
 127  0.917  0.351  0.545- 570 1.85 500 2.16 423 2.67 439 2.68 464 3.18 397 3.34
 128  0.916  0.550  0.546- 563 1.85 548 2.22 459 2.67 404 2.70 446 2.95 454 3.38
 129  0.579  0.748  0.548- 525 1.92 502 2.13 472 2.65 421 2.72 463 2.80 420 2.86
 130  0.252  0.950  0.545- 504 1.84 545 2.22 477 2.70 475 2.73 413 2.92 431 3.29
 131  0.497  0.604  0.609- 489 2.09  34 2.15 519 2.25 472 2.72 471 3.02 433 3.26
 132  0.333  0.597  0.591- 489 1.85 506 2.15 402 2.71 426 2.74 427 2.87
 133  0.335  0.793  0.591- 503 1.93 520 2.05 427 2.61 401 2.68 413 3.09
 134  0.665  0.400  0.590- 521 1.89 514 2.10 432 2.62 411 2.75 455 2.88
 135  0.666  0.200  0.592- 517 2.00 516 2.01 419 2.59 455 2.78 435 2.89
 136  0.086  0.751  0.546- 505 1.86 491 2.23 418 2.66 465 2.73 408 2.78 441 3.47
 137  0.914  0.851  0.641- 490 1.79 457 2.49 451 2.51
 138  0.749  0.751  0.457- 559 1.97 507 2.04 420 2.79 467 2.84 470 2.85 399 2.87
 139  0.583  0.252  0.639- 517 1.80 455 2.52 453 2.52
 140  0.417  0.947  0.639- 544 1.81 409 2.53 413 2.58
 141  0.753  0.446  0.645-  42 2.05 514 2.05 446 2.74 411 2.85
 142  0.749  0.252  0.640- 516 1.80 464 2.52 455 2.55
 143  0.583  0.350  0.361- 531 1.97 422 2.79 448 2.79
 144  0.250  0.950  0.361- 485 1.97 443 2.79 400 2.79
 145  0.917  0.950  0.361- 523 1.97 406 2.79 468 2.79
 146  0.250  0.750  0.361- 572 1.97 395 2.79 469 2.79
 147  0.250  0.351  0.454- 560 1.97 571 2.12 415 2.74 434 2.82 444 2.82 414 2.85
 148  0.417  0.750  0.361- 549 1.97 469 2.79 450 2.79
 149  0.915  0.348  0.640- 500 1.79 464 2.51 397 2.52
 150  0.500  0.898  0.501- 554 1.98 527 1.99 421 2.68 430 2.81 478 2.87 409 3.23
 151  0.168  0.700  0.500- 569 1.90 505 2.05 456 2.79 395 2.80 418 2.83 408 3.05
 152  0.914  0.650  0.641- 548 1.79 441 2.49 424 2.53
 153  0.416  0.353  0.547- 534 1.84 511 2.05 417 2.74 415 2.74 453 3.08 447 3.18
 154  0.917  0.850  0.361- 524 1.97 406 2.79 468 2.79
 155  0.754  0.547  0.638-  43 2.00 501 2.02 446 2.61 411 2.70
 156  0.912  0.548  0.640- 548 1.80 446 2.51 454 2.53
 157  0.590  0.848  0.647- 502 1.94  11 2.09 396 2.65 409 2.83
 158  0.427  0.444  0.657-   6 2.12  40 2.14 534 2.35 471 2.96 426 3.44
 159  0.749  0.251  0.546- 494 1.84 516 2.23 419 2.71 398 2.75 455 2.99 464 3.11
 160  0.167  0.300  0.500- 571 1.96 513 2.00 414 2.75 444 2.79 425 2.80
 161  0.916  0.550  0.454- 556 1.98 563 2.11 459 2.78 449 2.78 452 2.80 404 2.90
 162  0.168  0.899  0.500- 504 1.94 495 2.02 418 2.74 443 2.78 475 2.84
 163  0.420  0.741  0.634-  22 2.03 503 2.04 472 2.57 427 2.62
 164  0.830  0.801  0.592- 564 1.86 490 2.11 470 2.70 424 2.80 457 2.90
 165  0.832  0.397  0.591- 514 1.85 500 2.10 423 2.63 446 2.83 464 2.83
 166  0.743  0.351  0.641- 514 1.95  42 2.03 455 2.56 464 2.74
 167  0.583  0.250  0.361- 529 1.97 422 2.79 448 2.79
 168  0.583  0.749  0.455- 525 1.90 573 2.03 450 2.78 467 2.80 420 2.83 421 2.86
 169  0.583  0.252  0.454- 555 1.98 529 2.02 422 2.76 448 2.77 407 2.91 419 2.93
 170  0.916  0.350  0.454- 565 1.98 570 2.10 423 2.77 440 2.78 474 2.80 439 2.91
 171  0.749  0.251  0.454- 494 1.99 547 2.00 448 2.78 440 2.80 419 2.89 398 2.90
 172  0.417  0.847  0.455- 549 1.96 554 2.10 401 2.73 421 2.76 430 2.85 400 2.87
 173  0.753  0.655  0.636- 501 1.92  50 2.09 424 2.61 463 2.73
 174  0.085  0.850  0.642- 491 1.79 431 2.47 451 2.51
 175  0.741  0.848  0.640- 564 1.98  21 2.04 396 2.58 457 2.69
 176  0.916  0.750  0.639- 490 1.80 441 2.48 424 2.50
 177  0.916  0.950  0.641- 546 1.80 457 2.49 451 2.49
 178  0.397  0.640  0.652-   7 2.11  48 2.11 489 2.16 427 2.81 472 3.47
 179  0.255  0.742  0.663-  28 2.07  24 2.11 427 3.00 408 3.13
 180  0.254  0.349  0.641- 518 1.74 447 2.51 428 2.54
 181  0.581  0.353  0.645- 521 1.92  41 2.10 453 2.71 455 2.77
 182  0.582  0.948  0.638- 536 1.80 409 2.49 396 2.51
 183  0.084  0.351  0.546- 513 1.85 515 2.17 414 2.65 439 2.67 397 3.32 428 3.35
 184  0.249  0.453  0.641- 518 1.94   4 2.06 394 2.58 426 2.67
 185  0.165  0.602  0.587- 506 1.83 566 2.05 456 2.56 408 2.80 394 3.01
 186  0.577  0.749  0.640- 502 1.87  16 2.11 472 2.60 463 2.86
 187  0.580  0.551  0.646-  34 2.11 519 2.12  14 2.17 471 2.80 411 3.05
 188  0.749  0.950  0.455- 498 1.94 486 2.00 429 2.80 468 2.81 476 2.88 460 2.90
 189  0.916  0.251  0.547- 570 1.85 522 2.20 398 2.72 466 2.73 464 3.08 397 3.26
 190  0.336  0.700  0.504- 496 1.93 569 2.07 427 2.74 401 2.80 402 2.83 469 2.91
 191  0.334  0.502  0.503- 550 1.95 557 2.08 426 2.70 402 2.70 403 2.88 415 2.89
 192  0.666  0.502  0.504- 551 1.94 509 2.07 412 2.72 411 2.73 432 2.90 416 2.90
 193  0.915  0.750  0.454- 524 1.98 492 2.09 399 2.75 470 2.77 410 2.82 465 2.94
 194  0.083  0.250  0.361- 510 1.97 474 2.79 444 2.79
 195  0.583  0.551  0.457- 551 2.01 532 2.01 433 2.70 412 2.78 442 2.85 416 2.87
 196  0.250  0.550  0.361- 528 1.97 462 2.79 403 2.79
 197  0.750  0.350  0.361- 512 1.97 448 2.79 440 2.79
 198  0.748  0.450  0.456- 509 1.99 512 2.03 432 2.77 416 2.80 449 2.85 423 2.88
 199  0.417  0.747  0.454- 496 1.90 549 2.05 450 2.76 469 2.77 401 2.85 421 2.92
 200  0.750  0.550  0.361- 567 1.97 416 2.79 449 2.79
 201  0.750  0.750  0.361- 507 1.97 467 2.79 399 2.79
 202  0.750  0.950  0.361- 486 1.97 429 2.79 468 2.79
 203  0.250  0.350  0.361- 560 1.97 444 2.79 434 2.79
 204  0.417  0.550  0.361- 561 1.97 403 2.79 442 2.79
 205  0.665  0.700  0.503- 525 1.93 559 2.06 463 2.70 412 2.80 420 2.83 467 2.88
 206  0.251  0.948  0.454- 504 1.93 485 2.01 400 2.76 443 2.78 477 2.92 475 2.94
 207  0.417  0.950  0.361- 487 1.97 400 2.79 430 2.79
 208  0.167  0.501  0.498- 557 1.90 484 2.02 462 2.72 456 2.76 414 2.86 394 3.30
 209  0.915  0.448  0.640- 500 1.80 454 2.51 446 2.52
 210  0.833  0.499  0.500- 509 1.89 563 2.04 449 2.78 459 2.81 423 2.81 446 3.16
 211  0.253  0.351  0.547- 571 1.88 518 2.11 415 2.64 414 2.74 447 3.09 428 3.34
 212  0.832  0.699  0.501- 559 1.89 492 2.04 459 2.76 399 2.81 470 2.86 424 3.10
 213  0.500  0.696  0.500- 496 1.98 525 1.98 433 2.70 450 2.79 472 2.83 421 2.95
 214  0.500  0.499  0.500- 550 1.97 551 2.00 442 2.80 417 2.80 433 2.82 471 2.87
 215  0.917  0.650  0.361- 556 1.97 410 2.79 399 2.79
 216  0.251  0.249  0.642- 499 1.80 428 2.49 447 2.51
 217  0.262  0.840  0.646- 520 1.96  28 2.07 413 2.77 431 2.93
 218  0.247  0.659  0.629- 506 1.99  24 2.03 408 2.53 427 2.55
 219  0.750  0.351  0.454- 512 1.97 494 2.10 432 2.78 440 2.81 448 2.81 423 2.83
 220  0.588  0.456  0.634- 521 1.99  37 2.04 471 2.57 411 2.60
 221  0.915  0.250  0.641- 522 1.80 397 2.50 464 2.52
 222  0.083  0.551  0.545- 484 1.85 566 2.21 404 2.66 456 2.68 394 3.06 454 3.38
 223  0.754  0.755  0.656-  21 2.06  50 2.11 564 2.36 424 2.95 463 3.18
 224  0.916  0.450  0.454- 565 1.98 563 2.09 423 2.79 449 2.79 452 2.81 439 2.90
 225  0.833  0.300  0.500- 494 1.95 570 2.02 423 2.75 440 2.79 398 2.81 464 3.37
 226  0.500  0.200  0.592- 517 2.00 497 2.00 407 2.58 453 2.77 445 2.91
 227  0.917  0.750  0.361- 524 1.97 410 2.79 399 2.79
 228  0.832  0.900  0.500- 498 1.94 493 2.02 470 2.75 468 2.78 460 2.83 457 3.55
 229  0.000  0.400  0.407- 565 1.97 558 1.97 452 2.79 474 2.79 439 2.97
 230  0.000  0.600  0.407- 556 1.97 562 1.97 410 2.79 452 2.79 404 2.99
 231  0.748  0.651  0.454- 559 1.99 567 2.01 412 2.75 467 2.76 399 2.81 459 2.92
 232  0.333  0.200  0.407- 568 1.97 526 1.97 434 2.79 473 2.79 405 2.97
 233  0.333  0.600  0.407- 561 1.97 528 1.97 403 2.79 469 2.79 402 2.83
 234  0.251  0.552  0.455- 528 1.98 557 2.07 402 2.69 403 2.82 456 2.84 462 2.86
 235  0.334  0.898  0.500- 554 1.97 504 2.00 401 2.72 400 2.78 477 2.89 413 3.09
 236  0.667  0.200  0.407- 547 1.97 529 1.97 448 2.79 482 2.79 419 2.97
 237  0.000  0.900  0.499- 493 1.97 495 1.97 406 2.76 465 2.78 483 2.80
 238  0.590  0.652  0.639- 519 1.98  45 2.08 463 2.63 472 2.79
 239  0.084  0.950  0.454- 488 1.99 495 2.11 443 2.78 406 2.79 475 2.88 483 2.89
 240  0.083  0.550  0.453- 562 1.97 484 2.11 452 2.78 456 2.78 462 2.79 404 2.91
 241  0.084  0.350  0.454- 558 1.98 513 2.12 444 2.78 474 2.80 414 2.86 439 2.87
 242  0.916  0.850  0.454- 524 1.98 493 2.11 470 2.75 468 2.79 406 2.81 465 2.88
 243  0.747  0.647  0.545- 501 1.96 559 1.96 412 2.63 459 2.80 463 2.82 424 3.20
 244  0.000  0.300  0.499- 570 1.96 513 1.98 474 2.75 466 2.79 439 2.80
 245  0.916  0.250  0.454- 552 1.98 570 2.08 440 2.79 474 2.81 398 2.86 466 2.89
 246  0.250  0.650  0.361- 528 1.97 395 2.79 469 2.79
 247  0.499  0.403  0.591- 534 1.99 521 2.05 471 2.62 417 2.67 453 2.96
 248  0.252  0.647  0.544- 569 1.91 506 2.05 402 2.63 456 2.78 427 2.87 408 3.18
 249  0.583  0.848  0.456- 573 1.97 527 2.11 420 2.72 421 2.73 430 2.85 429 2.86
 250  0.750  0.150  0.547- 538 1.85 516 2.21 419 2.69 398 2.71 437 3.22 435 3.23
 251  0.250  0.150  0.546- 537 1.85 499 2.18 405 2.68 425 2.70 458 3.27 436 3.28
 252  0.583  0.150  0.548- 539 1.85 517 2.19 407 2.70 419 2.72 435 3.22 445 3.23
 253  0.916  0.151  0.546- 540 1.85 522 2.19 398 2.68 466 2.70 437 3.25 461 3.27
 254  0.084  0.050  0.547- 535 1.85 542 2.20 475 2.67 483 2.71 458 3.24 461 3.26
 255  0.417  0.250  0.361- 568 1.97 434 2.79 422 2.79
 256  0.000  0.000  0.407- 523 1.97 488 1.97 438 2.79 406 2.79 483 2.97
 257  0.583  0.450  0.361- 531 1.97 442 2.79 416 2.79
 258  0.666  0.302  0.500- 555 1.97 494 2.00 432 2.70 448 2.78 419 2.87 455 3.22
 259  0.083  0.650  0.361- 562 1.97 410 2.79 395 2.79
 260  0.917  0.250  0.361- 552 1.97 474 2.79 440 2.79
 261  0.750  0.850  0.454- 507 1.98 498 2.08 429 2.79 468 2.79 420 2.83 470 2.85
 262  0.749  0.550  0.456- 509 1.98 567 2.01 412 2.71 416 2.81 449 2.84 459 2.86
 263  0.250  0.250  0.454- 526 2.00 571 2.09 434 2.80 444 2.80 405 2.87 425 2.87
 264  0.583  0.353  0.456- 531 1.97 555 2.10 417 2.69 432 2.75 422 2.87 448 2.88
 265  0.252  0.652  0.454- 569 1.99 528 2.02 469 2.74 402 2.77 395 2.80 456 2.93
 266  1.000  0.499  0.498- 563 1.94 484 1.96 452 2.74 439 2.78 404 2.82
 267  0.833  0.200  0.407- 547 1.97 552 1.97 440 2.79 479 2.79 398 2.96
 268  0.417  0.151  0.546- 541 1.85 497 2.19 407 2.68 405 2.69 436 3.28 445 3.28
 269  0.417  0.351  0.454- 530 1.98 511 2.07 417 2.80 422 2.80 434 2.81 415 2.85
 270  0.915  0.450  0.547- 563 1.84 500 2.22 423 2.70 439 2.75 446 2.86 454 3.36
 271  0.750  0.850  0.361- 507 1.97 429 2.79 468 2.79
 272  0.083  0.450  0.454- 558 1.98 484 2.10 462 2.80 452 2.81 439 2.86 414 2.88
 273  0.084  0.850  0.454- 553 1.98 495 2.11 418 2.77 443 2.80 406 2.81 465 2.88
 274  0.084  0.650  0.454- 562 1.99 505 2.09 456 2.75 395 2.79 410 2.81 404 2.90
 275  0.667  0.600  0.407- 567 1.97 532 1.97 416 2.79 467 2.79 412 2.81
 276  0.500  0.200  0.407- 529 1.97 568 1.97 422 2.79 480 2.79 407 2.96
 277  0.417  0.251  0.455- 511 1.94 568 2.02 422 2.80 434 2.81 407 2.87 405 2.89
 278  0.833  0.400  0.407- 512 1.97 565 1.97 449 2.79 440 2.79 423 2.87
 279  0.083  0.450  0.361- 558 1.97 462 2.79 452 2.79
 280  0.333  0.400  0.407- 530 1.97 560 1.97 403 2.79 434 2.79 415 2.88
 281  0.584  0.453  0.454- 551 1.94 531 2.03 416 2.74 442 2.78 432 2.87 417 2.88
 282  0.167  0.400  0.407- 560 1.97 558 1.97 462 2.79 444 2.79 414 2.98
 283  0.667  0.800  0.407- 507 1.97 573 1.97 429 2.79 467 2.79 420 2.86
 284  0.747  0.847  0.546- 564 1.83 498 2.03 420 2.66 470 2.77 396 3.10 457 3.33
 285  0.583  0.050  0.642- 536 1.79 445 2.50 435 2.50
 286  0.000  0.200  0.407- 552 1.97 510 1.97 474 2.79 438 2.79 466 2.97
 287  0.500  0.800  0.407- 573 1.97 549 1.97 430 2.79 450 2.79 421 2.91
 288  0.417  0.650  0.361- 561 1.97 469 2.79 450 2.79
 289  0.417  0.450  0.361- 530 1.97 403 2.79 442 2.79
 290  0.417  0.850  0.361- 549 1.97 400 2.79 430 2.79
 291  0.750  0.450  0.361- 512 1.97 416 2.79 449 2.79
 292  0.916  0.950  0.454- 523 1.99 493 2.10 468 2.78 406 2.79 460 2.88 483 2.89
 293  0.583  0.950  0.361- 533 1.97 430 2.79 429 2.79
 294  0.916  0.650  0.454- 556 1.98 492 2.10 459 2.76 399 2.79 410 2.81 404 2.88
 295  1.000  0.702  0.497- 505 1.94 492 1.95 410 2.71 465 2.76 404 2.86
 296  0.334  0.301  0.499- 511 1.95 571 2.01 415 2.73 434 2.75 405 2.84 447 3.39
 297  0.333  0.800  0.407- 549 1.97 572 1.97 400 2.79 469 2.79 401 2.84
 298  0.252  0.750  0.456- 569 2.00 572 2.03 401 2.77 469 2.81 395 2.86 418 2.88
 299  0.667  0.400  0.407- 512 1.97 531 1.97 416 2.79 448 2.79 432 2.86
 300  0.584  0.650  0.455- 525 2.00 532 2.00 433 2.78 467 2.79 412 2.80 450 2.83
 301  0.500  0.600  0.407- 532 1.97 561 1.97 442 2.79 450 2.79 433 2.80
 302  0.917  0.450  0.361- 565 1.97 452 2.79 449 2.79
 303  0.083  0.350  0.361- 558 1.97 474 2.79 444 2.79
 304  0.500  0.400  0.407- 531 1.97 530 1.97 442 2.79 422 2.79 417 2.86
 305  0.583  0.650  0.361- 532 1.97 450 2.79 467 2.79
 306  0.750  0.650  0.361- 567 1.97 467 2.79 399 2.79
 307  0.167  0.200  0.407- 526 1.97 510 1.97 444 2.79 481 2.79 425 2.97
 308  0.250  0.250  0.361- 526 1.97 444 2.79 434 2.79
 309  0.750  0.250  0.361- 547 1.97 448 2.79 440 2.79
 310  0.084  0.151  0.546- 535 1.85 508 2.19 425 2.69 466 2.69 461 3.28 458 3.28
 311  1.000  0.599  0.594- 548 1.95 566 1.96 404 2.62 454 2.91 441 2.95
 312  0.500  0.100  0.499- 541 1.98 539 1.98 480 2.75 407 2.77 478 2.78
 313  0.833  0.000  0.407- 486 1.97 523 1.97 479 2.79 468 2.79 460 2.97
 314  0.083  0.050  0.454- 488 1.98 535 2.11 438 2.80 481 2.80 475 2.86 483 2.87
 315  0.416  0.049  0.454- 487 1.97 541 2.12 477 2.81 473 2.81 480 2.82 478 2.84
 316  0.750  0.050  0.454- 486 1.98 538 2.11 482 2.79 479 2.79 476 2.86 460 2.88
 317  0.250  0.049  0.454- 485 1.97 537 2.11 473 2.81 481 2.82 477 2.84 475 2.87
 318  0.584  0.050  0.454- 533 1.98 539 2.11 482 2.80 480 2.81 476 2.83 478 2.85
 319  0.917  0.150  0.361- 552 1.97 438 2.79 479 2.79
 320  0.250  0.150  0.361- 526 1.97 481 2.79 473 2.79
 321  0.252  0.452  0.454- 557 1.96 560 2.01 403 2.74 415 2.80 462 2.80 414 2.97
 322  0.750  0.150  0.361- 547 1.97 482 2.79 479 2.79
 323  0.583  0.850  0.361- 573 1.97 430 2.79 429 2.79
 324  0.251  0.848  0.456- 572 1.98 504 2.07 401 2.75 418 2.82 400 2.83 443 2.85
 325  0.416  0.647  0.458- 496 1.98 561 2.02 433 2.72 402 2.73 469 2.89 450 2.92
 326  0.083  0.950  0.361- 488 1.97 443 2.79 406 2.79
 327  0.084  0.250  0.454- 510 1.99 513 2.10 444 2.79 474 2.82 425 2.86 466 2.88
 328  0.250  0.450  0.361- 560 1.97 462 2.79 403 2.79
 329  0.833  0.800  0.407- 507 1.97 524 1.97 468 2.79 399 2.79 470 2.87
 330  0.167  0.000  0.407- 485 1.97 488 1.97 481 2.79 443 2.79 475 2.97
 331  0.083  0.550  0.361- 562 1.97 462 2.79 452 2.79
 332  0.667  0.000  0.407- 486 1.97 533 1.97 482 2.79 429 2.79 476 2.96
 333  0.085  0.750  0.454- 553 1.97 505 2.08 395 2.77 418 2.80 410 2.81 465 2.92
 334  0.417  0.050  0.547- 541 1.86 544 2.21 477 2.70 478 2.70 436 3.22 445 3.23
 335  0.417  0.548  0.454- 550 1.96 561 2.02 442 2.76 403 2.78 433 2.82 402 2.86
 336  0.167  0.600  0.407- 528 1.97 562 1.97 395 2.79 462 2.79 456 2.85
 337  0.250  0.850  0.361- 572 1.97 443 2.79 400 2.79
 338  0.752  0.549  0.549- 509 1.94 501 2.02 411 2.74 459 2.80 412 2.82 446 3.00
 339  0.423  0.555  0.546- 489 1.88 550 2.07 433 2.62 402 2.84 471 2.91 426 3.11
 340  0.423  0.750  0.547- 496 1.94 503 2.01 421 2.68 472 2.77 401 2.87 427 2.93
 341  0.749  0.350  0.547- 514 1.93 494 1.95 432 2.71 423 2.79 455 3.05 464 3.14
 342  0.833  0.201  0.592- 516 2.00 522 2.02 398 2.58 464 2.79 437 2.92
 343  0.748  0.948  0.639- 543 1.80 457 2.49 396 2.53
 344  0.583  0.150  0.361- 529 1.97 480 2.79 482 2.79
 345  0.083  0.050  0.361- 488 1.97 481 2.79 438 2.79
 346  0.417  0.050  0.361- 487 1.97 473 2.79 480 2.79
 347  0.750  0.050  0.361- 486 1.97 482 2.79 479 2.79
 348  0.250  0.050  0.361- 485 1.97 481 2.79 473 2.79
 349  0.583  0.050  0.361- 533 1.97 480 2.79 482 2.79
 350  0.917  0.050  0.361- 523 1.97 438 2.79 479 2.79
 351  0.333  0.000  0.407- 487 1.97 485 1.97 473 2.79 400 2.79 477 2.96
 352  0.416  0.449  0.457- 550 1.91 530 2.04 415 2.81 417 2.82 403 2.84 442 2.88
 353  0.500  0.000  0.407- 533 1.97 487 1.97 480 2.79 430 2.79 478 2.96
 354  0.417  0.350  0.361- 530 1.97 434 2.79 422 2.79
 355  0.417  0.150  0.642- 497 1.79 445 2.50 436 2.51
 356  0.583  0.150  0.643- 517 1.79 445 2.51 435 2.53
 357  0.916  0.150  0.641- 522 1.79 437 2.50 461 2.51
 358  0.251  0.149  0.641- 499 1.80 436 2.50 458 2.50
 359  0.750  0.150  0.642- 516 1.80 437 2.51 435 2.51
 360  0.583  0.050  0.547- 539 1.85 536 2.18 478 2.70 476 2.71 435 3.23 445 3.24
 361  0.250  0.050  0.547- 537 1.85 545 2.22 477 2.70 475 2.71 458 3.23 436 3.24
 362  0.750  0.049  0.546- 538 1.85 543 2.20 476 2.69 460 2.69 437 3.24 435 3.26
 363  0.833  0.100  0.499- 538 1.98 540 2.00 479 2.76 398 2.78 460 2.78
 364  0.250  0.150  0.454- 526 1.98 537 2.11 473 2.79 481 2.79 405 2.86 425 2.89
 365  0.583  0.151  0.455- 529 1.97 539 2.11 480 2.82 407 2.82 482 2.83 419 2.83
 366  0.917  0.150  0.454- 552 1.98 540 2.10 479 2.79 438 2.79 398 2.87 466 2.89
 367  0.000  0.100  0.499- 540 1.98 535 1.99 438 2.76 483 2.79 466 2.80
 368  0.333  0.100  0.499- 541 1.99 537 1.99 477 2.75 473 2.76 405 2.78
 369  0.833  0.600  0.407- 567 1.97 556 1.97 399 2.79 449 2.79 459 2.88
 370  0.167  0.100  0.499- 537 1.98 535 1.99 481 2.75 475 2.78 425 2.81
 371  0.666  0.100  0.499- 539 1.98 538 2.00 419 2.76 476 2.76 482 2.76
 372  0.083  0.149  0.640- 508 1.80 461 2.49 458 2.51
 373  0.084  0.050  0.640- 542 1.80 458 2.49 461 2.51
 374  0.916  0.050  0.640- 546 1.80 461 2.50 437 2.50
 375  0.417  0.050  0.643- 544 1.79 436 2.51 445 2.51
 376  0.083  0.850  0.361- 553 1.97 443 2.79 406 2.79
 377  0.252  0.251  0.547- 571 1.84 499 2.23 405 2.71 425 2.75 447 3.00 428 3.27
 378  0.750  0.050  0.641- 543 1.80 437 2.50 435 2.51
 379  0.083  0.750  0.361- 553 1.97 410 2.79 395 2.79
 380  0.083  0.150  0.361- 510 1.97 481 2.79 438 2.79
 381  0.417  0.150  0.361- 568 1.97 473 2.79 480 2.79
 382  0.917  0.050  0.454- 523 1.98 540 2.11 479 2.80 438 2.80 460 2.86 483 2.87
 383  0.083  0.150  0.454- 510 1.98 535 2.11 481 2.79 438 2.79 466 2.88 425 2.89
 384  0.417  0.150  0.454- 568 1.97 541 2.11 473 2.80 480 2.80 407 2.86 405 2.87
 385  0.414  0.849  0.548- 503 1.94 554 1.98 401 2.71 421 2.76 413 2.92 409 3.09
 386  0.916  0.050  0.547- 540 1.85 546 2.20 460 2.68 483 2.71 437 3.24 461 3.25
 387  0.750  0.151  0.454- 547 1.98 538 2.11 482 2.81 479 2.81 419 2.85 398 2.86
 388  0.500  0.000  0.592- 544 1.99 536 2.00 478 2.58 409 2.82 445 2.91
 389  0.167  0.999  0.592- 545 1.99 542 2.02 475 2.58 431 2.86 458 2.91
 390  0.833  0.999  0.592- 543 1.99 546 2.02 460 2.58 457 2.83 437 2.94
 391  0.000  0.999  0.592- 542 1.99 546 2.00 483 2.59 461 2.91 451 2.93
 392  0.334  1.000  0.592- 544 2.01 545 2.02 477 2.59 413 2.73 436 2.88
 393  0.666  0.000  0.592- 536 2.00 543 2.01 476 2.59 396 2.73 435 2.90
 394  0.163  0.497  0.608- 113 2.51 125 2.51 184 2.58  92 2.62 120 2.79  87 2.88 185 3.01 104 3.03
                           121 3.04 222 3.06 208 3.30 515 3.35 506 3.42 518 3.46 566 3.46 484 3.60
 395  0.167  0.700  0.407- 333 2.77 246 2.79 146 2.79 259 2.79 379 2.79 336 2.79  64 2.79 274 2.79
                           151 2.80 265 2.80 298 2.86 528 3.42 572 3.42 562 3.42 553 3.42 569 3.46
 396  0.665  0.904  0.606- 182 2.51 343 2.53 175 2.58 157 2.65 393 2.73  75 2.89  95 2.92  99 2.95
                           284 3.10 116 3.11 124 3.22 536 3.34 543 3.36 502 3.47 564 3.53 527 3.58
 397  0.000  0.298  0.621- 221 2.50  72 2.50 110 2.50 149 2.52  68 2.87  69 2.92 100 3.24 189 3.26
                           183 3.32 127 3.34 500 3.42 522 3.43 515 3.43 508 3.44 513 3.94 428 3.96
 398  0.834  0.199  0.506- 342 2.58 253 2.68 250 2.71 189 2.72 159 2.75 363 2.78 225 2.81 387 2.86
                           245 2.86 366 2.87 171 2.90 267 2.96 494 3.38 540 3.40 538 3.40 570 3.44
 399  0.833  0.700  0.407- 193 2.75 306 2.79 201 2.79 215 2.79 227 2.79 369 2.79 329 2.79 294 2.79
                           212 2.81 231 2.81 138 2.87 567 3.42 507 3.42 556 3.42 524 3.42 559 3.44
 400  0.333  0.900  0.407- 206 2.76 235 2.78 101 2.78 290 2.79 337 2.79 207 2.79 144 2.79 297 2.79
                           351 2.79 324 2.83 172 2.87 549 3.42 572 3.42 487 3.42 485 3.42 504 3.48
 401  0.334  0.801  0.502- 133 2.68 385 2.71 235 2.72 172 2.73 324 2.75 298 2.77  74 2.78 190 2.80
                           297 2.84 199 2.85 340 2.87  94 2.94 520 3.37 503 3.39 496 3.41 554 3.43
 402  0.331  0.599  0.501- 248 2.63 234 2.69 191 2.70 132 2.71 325 2.73 265 2.77 121 2.81 233 2.83
                           190 2.83 339 2.84 335 2.86  71 3.04 489 3.35 528 3.42 569 3.42 550 3.45
 403  0.333  0.500  0.407- 321 2.74 335 2.78 204 2.79 289 2.79 196 2.79 328 2.79 233 2.79 280 2.79
                           234 2.82 352 2.84 191 2.88 530 3.42 561 3.42 560 3.42 528 3.42 550 3.44
 404  1.000  0.600  0.507- 311 2.62 222 2.66  73 2.69 103 2.69 128 2.70 266 2.82 295 2.86 294 2.88
                           274 2.90 161 2.90 240 2.91 230 2.99 492 3.39 563 3.40 505 3.41 484 3.41
 405  0.333  0.199  0.506-  67 2.59 251 2.68 268 2.69 377 2.71  80 2.77 368 2.78 296 2.84 364 2.86
                           384 2.87 263 2.87 277 2.89 232 2.97 511 3.37 537 3.40 541 3.40 571 3.43
 406  0.000  0.900  0.407- 237 2.76 154 2.79 376 2.79 145 2.79 326 2.79  81 2.79 256 2.79 292 2.79
                           239 2.79 242 2.81 273 2.81 524 3.42 553 3.42 523 3.42 488 3.42 493 3.57
 407  0.500  0.199  0.506- 226 2.58 268 2.68 252 2.70 102 2.71 312 2.77  80 2.77 365 2.82 384 2.86
                            82 2.86 277 2.87 169 2.91 276 2.96 541 3.38 539 3.39 511 3.40 555 3.40
 408  0.160  0.702  0.602- 109 2.51 123 2.53 218 2.53 112 2.76 136 2.78 185 2.80 103 2.85  94 2.87
                           151 3.05 179 3.13 248 3.18 491 3.33 566 3.40 505 3.43 506 3.50 520 3.53
 409  0.500  0.901  0.609- 182 2.49 140 2.53 119 2.68 105 2.72 388 2.82 157 2.83  75 2.99  83 3.03
                            99 3.07 385 3.09 150 3.23 544 3.40 536 3.41 502 3.46 503 3.47 527 3.67
 410  0.000  0.700  0.407- 295 2.71 215 2.79 227 2.79 259 2.79 379 2.79 230 2.79  81 2.79 333 2.81
                           294 2.81 274 2.81 193 2.82 556 3.42 524 3.42 562 3.42 553 3.42 505 3.52
 411  0.672  0.498  0.594-  76 2.60 220 2.60 155 2.70 117 2.73 192 2.73 338 2.74 134 2.75 141 2.85
                           122 2.92  79 2.94 187 3.05 509 3.35 514 3.39 521 3.46 519 3.46 551 3.47
 412  0.669  0.600  0.501- 243 2.63 262 2.71 192 2.72 117 2.72 231 2.75 195 2.78 300 2.80 205 2.80
                           275 2.81 338 2.82  77 2.86  79 3.04 519 3.35 567 3.41 509 3.41 559 3.42
 413  0.334  0.903  0.602-  90 2.51 140 2.58 119 2.62 392 2.73 217 2.77  83 2.86  74 2.87 130 2.92
                           385 2.92 133 3.09 235 3.09 545 3.34 544 3.36 520 3.46 503 3.46 554 3.55
 414  0.166  0.399  0.506- 120 2.61 183 2.65  87 2.69 104 2.72 211 2.74 160 2.75 147 2.85 241 2.86
                           208 2.86 272 2.88 321 2.97 282 2.98 557 3.37 513 3.39 571 3.39 484 3.45
 415  0.331  0.399  0.503- 211 2.64 115 2.72 296 2.73 104 2.74 153 2.74 147 2.74 321 2.80 352 2.81
                           269 2.85 280 2.88 191 2.89  78 2.97 534 3.33 571 3.36 557 3.41 560 3.45
 416  0.667  0.500  0.407- 281 2.74 200 2.79 291 2.79  85 2.79 257 2.79 275 2.79 299 2.79 198 2.80
                           262 2.81 195 2.87 192 2.90 512 3.42 567 3.42 532 3.42 531 3.42 551 3.46
 417  0.501  0.398  0.502- 247 2.67 264 2.69  82 2.70 122 2.72 153 2.74  65 2.78 214 2.80 269 2.80
                           352 2.82 304 2.86 281 2.88  78 2.97 534 3.36 555 3.41 551 3.42 550 3.45
 418  0.165  0.801  0.503-  84 2.65 136 2.66 162 2.74 112 2.74 273 2.77 333 2.80 324 2.82 151 2.83
                            74 2.88 298 2.88  64 2.89  94 2.91 520 3.34 495 3.37 505 3.43 569 3.45
 419  0.667  0.199  0.506- 135 2.59 250 2.69 102 2.71 159 2.71 252 2.72 371 2.76 365 2.83 387 2.85
                           258 2.87 171 2.89 169 2.93 236 2.97 539 3.39 538 3.39 555 3.40 494 3.41
 420  0.665  0.801  0.502- 284 2.66 116 2.67 249 2.72 124 2.73  75 2.76 138 2.79 261 2.83 205 2.83
                           168 2.83 129 2.86 283 2.86  96 2.98 564 3.34 525 3.38 527 3.39 573 3.46
 421  0.501  0.802  0.504- 105 2.66 340 2.68 150 2.68 129 2.72 249 2.73 385 2.76 172 2.76  75 2.81
                           168 2.86 287 2.91 199 2.92 213 2.95 503 3.38 527 3.38 554 3.42 525 3.42
 422  0.500  0.300  0.407- 169 2.76 167 2.79 143 2.79 255 2.79 354 2.79 276 2.79 304 2.79 277 2.80
                            82 2.80 269 2.80 264 2.87 529 3.42 531 3.42 568 3.42 530 3.42 511 3.49
 423  0.836  0.399  0.503- 165 2.63 127 2.67 270 2.70 225 2.75 170 2.77 341 2.79 224 2.79 210 2.81
                           219 2.83 278 2.87 198 2.88  76 2.90 514 3.33 570 3.38 563 3.43 509 3.45
 424  0.840  0.701  0.604- 176 2.50 152 2.53 173 2.61 164 2.80 111 2.80 126 2.83  96 2.87  73 2.88
                           223 2.95 212 3.10 243 3.20 490 3.36 548 3.40 501 3.41 492 3.48 564 3.52
 425  0.167  0.200  0.506- 118 2.59 310 2.69 251 2.70 100 2.72 377 2.75 160 2.80 370 2.81 327 2.86
                           263 2.87 383 2.89 364 2.89 307 2.97 571 3.40 513 3.41 537 3.42 535 3.42
 426  0.326  0.499  0.593- 107 2.60 115 2.65 121 2.66 104 2.66 184 2.67 191 2.70  78 2.74 132 2.74
                            92 2.95 339 3.11 557 3.29 518 3.39   6 3.40 506 3.41 489 3.42 158 3.44
 427  0.334  0.699  0.595- 218 2.55 133 2.61 163 2.62  71 2.70  94 2.72 190 2.74 178 2.81 248 2.87
                           132 2.87 340 2.93 179 3.00 489 3.38 503 3.42 569 3.44 496 3.44 520 3.50
 428  0.168  0.299  0.622-  72 2.49 216 2.49 110 2.50 180 2.54 118 2.89 120 2.90 377 3.27 100 3.29
                           211 3.34 183 3.35 518 3.39 515 3.44 499 3.45 508 3.46 447 3.91 397 3.96
 429  0.667  0.900  0.407- 124 2.75 114 2.79 271 2.79 202 2.79 323 2.79 293 2.79 283 2.79 332 2.79
                           261 2.79 188 2.80 249 2.86 507 3.42 573 3.42 486 3.42 533 3.42 498 3.49
 430  0.500  0.900  0.407- 101 2.76 114 2.76 323 2.79 290 2.79 293 2.79 207 2.79 287 2.79 353 2.79
                           150 2.81 249 2.85 172 2.85 573 3.42 549 3.42 533 3.42 487 3.42 554 3.51
 431  0.166  0.900  0.618-  90 2.47 174 2.47 108 2.48 389 2.86 112 2.88 217 2.93  84 3.19  74 3.19
                            70 3.22 130 3.29 545 3.43 491 3.43 542 3.44 520 3.44 495 3.88 451 3.94
 432  0.667  0.399  0.502- 134 2.62 258 2.70 341 2.71 264 2.75 122 2.76 198 2.77 219 2.78  76 2.84
                           299 2.86  65 2.87 281 2.87 192 2.90 514 3.41 551 3.42 521 3.42 494 3.43
 433  0.501  0.600  0.500- 339 2.62 195 2.70 213 2.70 325 2.72  77 2.73  79 2.77 300 2.78 301 2.80
                           214 2.82 335 2.82  71 2.93 131 3.26 532 3.41 551 3.43 561 3.44 550 3.45
 434  0.333  0.300  0.407- 296 2.75 255 2.79 354 2.79 308 2.79 203 2.79 232 2.79 280 2.79 263 2.80
                           269 2.81 277 2.81 147 2.82 568 3.42 530 3.42 526 3.42 560 3.42 511 3.47
 435  0.666  0.100  0.619- 285 2.50 378 2.51 359 2.51 356 2.53 135 2.89 393 2.90 252 3.22 360 3.23
                           250 3.23 362 3.26 517 3.43 536 3.43 516 3.44 543 3.45 539 3.89 538 3.91
 436  0.334  0.099  0.619- 358 2.50 375 2.51 355 2.51  91 2.51 392 2.88  67 2.94 334 3.22 361 3.24
                           268 3.28 251 3.28 544 3.42 499 3.45 545 3.45 497 3.46 541 3.91 537 3.93
 437  0.833  0.100  0.618- 357 2.50 374 2.50 378 2.50 359 2.51 342 2.92 390 2.94 250 3.22 386 3.24
                           362 3.24 253 3.25 516 3.44 543 3.45 522 3.45 546 3.46 538 3.89 540 3.91
 438  0.000  0.100  0.407- 367 2.76 350 2.79 319 2.79 345 2.79 380 2.79 256 2.79 286 2.79 366 2.79
                           383 2.79 382 2.80 314 2.80 523 3.42 552 3.42 488 3.42 510 3.42 540 3.57
 439  0.001  0.400  0.506-  69 2.59 183 2.67 127 2.68  87 2.75 270 2.75 266 2.78 244 2.80 272 2.86
                           241 2.87 224 2.90 170 2.91 229 2.97 484 3.38 563 3.39 513 3.41 570 3.42
 440  0.833  0.300  0.407- 170 2.78 225 2.79 309 2.79 197 2.79 260 2.79  88 2.79 267 2.79 278 2.79
                           245 2.79 171 2.80 219 2.81 547 3.42 512 3.42 552 3.42 565 3.42 494 3.51
 441  1.000  0.699  0.626- 109 2.48 176 2.48 152 2.49 123 2.50 311 2.95  66 3.05 103 3.34  73 3.35
                           548 3.44 566 3.45 126 3.47 136 3.47 491 3.51 490 3.52 424 3.85 408 3.86
 442  0.500  0.500  0.407- 335 2.76 281 2.78  85 2.79 257 2.79 204 2.79 289 2.79 304 2.79 301 2.79
                           214 2.80 195 2.85 352 2.88 531 3.42 532 3.42 530 3.42 561 3.42 550 3.44
 443  0.167  0.900  0.407- 162 2.78 239 2.78 206 2.78 337 2.79 376 2.79 144 2.79 326 2.79  64 2.79
                           330 2.79 273 2.80 324 2.85 572 3.42 553 3.42 485 3.42 488 3.42 504 3.46
 444  0.167  0.300  0.407- 241 2.78 160 2.79 308 2.79 203 2.79 194 2.79 303 2.79 307 2.79 282 2.79
                           327 2.79 263 2.80 147 2.82 526 3.42 560 3.42 510 3.42 558 3.42 571 3.57
 445  0.500  0.100  0.620- 355 2.50 285 2.50 375 2.51 356 2.51 388 2.91 226 2.91 252 3.23 334 3.23
                           360 3.24 268 3.28 536 3.42 517 3.43 544 3.43 497 3.44 539 3.92 541 3.93
 446  0.837  0.497  0.605- 156 2.51 209 2.52 155 2.61 141 2.74 165 2.83 270 2.86  76 2.92 128 2.95
                           111 2.97 338 3.00 210 3.16 500 3.39 514 3.41 548 3.44 501 3.51 563 3.53
 447  0.332  0.297  0.612- 216 2.51 180 2.51  98 2.52 106 2.65  67 2.76 377 3.00  80 3.04 115 3.05
                           211 3.09 153 3.18 499 3.37 497 3.37 296 3.39 518 3.42 534 3.51 571 3.72
 448  0.667  0.300  0.407- 169 2.77 171 2.78 258 2.78 309 2.79 197 2.79 167 2.79 143 2.79 236 2.79
                           299 2.79 219 2.81 264 2.88 547 3.42 512 3.42 529 3.42 531 3.42 555 3.52
 449  0.833  0.500  0.407- 210 2.78 161 2.78 200 2.79 291 2.79  89 2.79 302 2.79 278 2.79 369 2.79
                           224 2.79 262 2.84 198 2.85 512 3.42 567 3.42 565 3.42 556 3.42 509 3.44
 450  0.500  0.700  0.407- 199 2.76 168 2.78 305 2.79  86 2.79 288 2.79 148 2.79 301 2.79 287 2.79
                           213 2.79 300 2.83 325 2.92 532 3.42 573 3.42 561 3.42 549 3.42 496 3.44
 451  1.000  0.900  0.623- 177 2.49 108 2.49 137 2.51 174 2.51  66 2.88 391 2.93  93 3.35  97 3.36
[...]
  350              map_forward                          47.511492                   3158   6
  351                map_gather                            0.080398                 1594   7
  352                m_alltoallv_z                        46.052575                 1594   7
  353                map_scatter                           1.349540                 1594   7
  354              map_backward                         20.001187                   3128   6
  355                map_gather                            1.080734                 1564   7
  356                m_alltoallv_z                        18.768965                 1564   7
  357                map_scatter                           0.121897                 1564   7
  358        ggaall_grid                          27.834010                          271   3
  359        m_sumb_d                              0.599555                         1400   3
  360        fewald                                0.021650                           30   3
  361          rsp                                   0.020016                         30   4
  362          rcp                                   0.001412                         30   4
  363        pothar                                0.047896                           15   3
  364          m_sumb_d                              0.045705                         15   4
  365        m_bcast_d                             0.122133                           15   3
  366      potlok_metagga                        0.000017                             15   2
  367      set_dd_magatom                        0.000010                              8   2
  368      set_dd_paw                            0.191678                             15   2
  369        set_rsgf_all                          0.000031                           15   3
  370        m_sumb_d                              0.187830                          105   3
  371      m_bcast_d                             0.005139                             16   2
  372      wavpre_noio                           0.773548                              7   2
  373        stufak                                0.737075                            7   3
  374      eddiag                              259.415247                              7   2
  375        overl                                 0.003615                            7   3
  376        redis_proj                           12.091447                           21   3
  377          m_alltoall_d                         12.088016                        903   4
  378        fftwav_mpi                            1.478744                          301   3
  379          fft3d_mpi                             1.320435                        301   4
  380            fftbrc_mpi                            1.117315                      301   5
  381              fftbas_plan_mpi                       1.116429                    301   6
  382                dfftw_execute                         0.589987                  903   7
  383                map_forward                           0.342857                  602   7
  384                  map_gather                            0.037166                301   8
  385                  m_alltoallv_z                         0.119209                301   8
  386                  map_scatter                           0.076750                301   8
  387        hamilt_local                          1.308893                          301   3
  388          vhamil                                0.179714                        301   4
  389          kinhamil                              1.126658                        301   4
  390            fftext_mpi                            1.114810                      301   5
  391              fft3d_mpi                             1.088430                    301   6
  392                fftbrc_mpi                            0.907128                  301   7
  393                  fftbas_plan_mpi                       0.906201                301   8
  394                    dfftw_execute                         0.505790              903   9
  395                    map_backward                          0.225197              602   9
  396                      map_gather                            0.066340            301  10
  397                      m_alltoallv_z                         0.098869            301  10
  398                      map_scatter                           0.054969            301  10
  399        redis_pw                              1.032288                          609   3
  400          m_alltoall_d                          0.993027                        903   4
  401        orth1                                 0.792723                          301   3
  402        m_sumb_d                              4.005405                            7   3
  403        shift_bands_between_low_high          0.000009                            7   3
  404        lincom                                1.177788                            7   3
  405      set_charge                            2.044587                              7   2
  406        soft_charge                           1.576830                            7   3
  407          fftwav_mpi                            1.198385                        252   4
  408            fft3d_mpi                             1.074302                      252   5
  409              fftbrc_mpi                            0.907419                    252   6
  410                fftbas_plan_mpi                       0.906624                  252   7
  411                  dfftw_execute                         0.481195                756   8
  412                  map_forward                           0.263388                504   8
  413                    map_gather                            0.027496              252   9
  414                    m_alltoallv_z                         0.087625              252   9
  415                    map_scatter                           0.059766              252   9
  416          pw_charge                             0.137484                        252   4
  417          m_sumb_d                              0.169977                          7   4
  418          fft_gq                                0.061736                          7   4
  419            fft3d_mpi                             0.060335                        7   5
  420              fftbrc_mpi                            0.057705                      7   6
  421                fftbas_plan_mpi                       0.057682                    7   7
  422                  dfftw_execute                         0.007405                 21   8
  423                  map_backward                          0.045828                 14   8
  424                    map_gather                            0.003357               14   9
  425                    m_alltoallv_z                         0.041263               14   9
  426                    map_scatter                           0.001018               14   9
  427        depsum                                0.013399                            7   3
  428          m_sumb_d                              0.010202                          7   4
  429        augmentation_charge                   0.453038                            7   3
  430          m_sumb_d                              0.022244                          7   4
  431          fft3d_mpi                             0.088934                          7   4
  432            fftbrc_mpi                            0.086935                        7   5
  433              fftbas_plan_mpi                       0.086913                      7   6
  434                dfftw_execute                         0.008347                   21   7
  435                map_backward                          0.072501                   14   7
  436                  map_gather                            0.003953                  7   8
  437                  m_alltoallv_z                         0.067920                  7   8
  438                  map_scatter                           0.000506                  7   8
 
 Flat profile
 ============
 
             routine name                   CPU           calls
 ---------------------------------------------------------------
 edwav                               15635.404252         794
 m_alltoallv_z                        1582.242283      187129
 m_sumb_d                             1160.657643      289979
 potlok                                959.432253         810
 m_alltoall_d                          581.918220      591784
 choleski                              502.661766         802
 eddiag                                451.260405         412
 lincom                                359.961882        2410
 dfftw_execute                         302.496967      556551
 ggaall_grid                           227.153174        1074
 eddav                                 164.050383           5
 orth1                                 138.615092       54587
 total_time                            125.905852           1
 fftbas_plan_mpi                       122.392342      185517
 fft3d_mpi                              97.315711      185517
 map_scatter                            55.384118      187129
 fftwav_mpi                             44.124028       86577
 eccp                                   41.007571       68499
 map_gather                             40.842687      187129
 augmentation_charge                    38.537676         802
 setdij_                                37.131125        1019
 racc0                                  33.205849       17866
 map_forward                            31.353958      235718
 rpro1                                  30.993059       17651
 m_bcast_z                              19.595961        2795
 orthch                                 18.032076         802
 pw_charge                              15.932190       28872
 lapack                                 15.251417         795
 vhamil                                 11.180561       18511
 force_and_stress                        9.675007           8
 m_bcast_d                               8.903736        3227
 w1_dscal                                7.154225       17071
 redis_pw                                6.286628       73770
 elmin_all                               4.725424           8
 rspher_all                              4.679643         105
 rpromu                                  3.970588        1144
 fftext_mpi                              3.315899       35582
 ggemm                                   2.887085        1010
 redis_proj                              2.298429       62776
 rpromu_gemm                             2.160185      323752
 soft_charge                             1.468415         802
 overl                                   1.338954       20057
 forloc                                  1.297431           8
 forhar                                  1.275410           8
 map_backward                            1.244407      135316
 rsp                                     1.197228        1628
 stufak                                  0.841771           8
 kinhamil                                0.800638       18511
 densta                                  0.696188         813
 fftbrc_mpi                              0.570939      185517
 set_dd_paw                              0.356084         818
 depsum                                  0.352517         802
 set_charge                              0.182425         802
 fft_gq                                  0.163586         802
 hamilt_local                            0.144862       17716
 rpro_isp                                0.128527         104
 pothar                                  0.117613         810
 w1_copy                                 0.113232        2385
 fewald                                  0.100304        1628
 rcp                                     0.090322        1628
 inisym                                  0.069855           1
 strnlr                                  0.062633           8
 wavpre_noio                             0.036473           7
 apply_precond                           0.036352         580
 overl1                                  0.029757         795
 setup_precond                           0.021812         215
 strehar                                 0.018155           8
 fornlr                                  0.017320           8
 strkin                                  0.016559           8
 strelo                                  0.015748           8
 hamiltmu                                0.012477         795
 newband                                 0.009946         800
 raccmu_                                 0.009282         795
 redis_pw_all                            0.005158         794
 w1_projall                              0.003192         580
 redis_pw_over_bands                     0.003162         809
 set_rsgf_all                            0.002165         818
 fordep                                  0.002040           8
 potlok_metagga                          0.001194         810
 truncate_high_frequency_w1              0.000962        1010
 brgrid                                  0.000618           1
 posmap                                  0.000405           2
 phaser                                  0.000361         506
 crpa_reader                             0.000234           1
 proall                                  0.000124           8
 rotate_active_occupied_orbital          0.000104           8
 set_dd_magatom                          0.000046          16
 vectorpot                               0.000036           1
 shift_bands_between_low_high            0.000020          15
 ---------------------------------------------------------------
  summed up times    22912.9543950558     
 
 Accumulative profile
 ====================
 
             routine name                   CPU           calls
 ---------------------------------------------------------------
 total_time                          22912.954395           1
 elmin_all                           22287.070485           8
 edwav                               18642.656473         794
 potlok                               2889.956207         810
 fft3d_mpi                            2233.843412      185517
 fftbrc_mpi                           2136.527702      185517
 fftbas_plan_mpi                      2135.956763      185517
 m_alltoallv_z                        1582.242283      187129
 map_forward                          1340.168833      235718
 orthch                               1250.626088         802
 m_sumb_d                             1160.657643      289979
 eddiag                                593.959928         412
 m_alltoall_d                          581.918220      591784
 choleski                              502.661766         802
 fftwav_mpi                            424.325633       86577
 map_backward                          370.898620      135316
 lincom                                359.961882        2410
 redis_proj                            359.353232       62776
 dfftw_execute                         302.496967      556551
 set_charge                            241.708421         802
 redis_pw                              231.150046       73770
 eddav                                 230.301046           5
 ggaall_grid                           227.153174        1074
 soft_charge                           180.849968         802
 orth1                                 138.615092       54587
 fftext_mpi                            130.773283       35582
 hamilt_local                           76.742200       17716
 force_and_stress                       73.387040           8
 kinhamil                               68.923092       18511
 setdij_                                57.185112        1019
 map_scatter                            55.384118      187129
 augmentation_charge                    54.287861         802
 racc0                                  48.545474       17866
 eccp                                   45.090421       68499
 map_gather                             40.842687      187129
 redis_pw_over_bands                    37.625822         809
 redis_pw_all                           37.622659         794
 rpro1                                  35.013456       17651
 rpro_isp                               28.128166         104
 strnlr                                 24.013572           8
 m_bcast_z                              19.595961        2795
 pw_charge                              15.932190       28872
 lapack                                 15.251417         795
 densta                                 12.662499         813
 vhamil                                 11.180561       18511
 set_dd_paw                             10.950143         818
 m_bcast_d                               8.903736        3227
 fornlr                                  8.058371           8
 fft_gq                                  7.372455         802
 w1_dscal                                7.154225       17071
 rpromu                                  6.811516        1144
 depsum                                  6.388168         802
 hamiltmu                                5.220831         795
 rspher_all                              4.679643         105
 ggemm                                   2.887085        1010
 fordep                                  2.783811           8
 pothar                                  2.449419         810
 newband                                 2.275445         800
 proall                                  2.199138           8
 rpromu_gemm                             2.160185      323752
 fewald                                  2.075902        1628
 raccmu_                                 1.702039         795
 forloc                                  1.357919           8
 overl                                   1.338954       20057
 forhar                                  1.314520           8
 rsp                                     1.197228        1628
 w1_projall                              1.159786         580
 stufak                                  0.841771           8
 wavpre_noio                             0.773548           7
 w1_copy                                 0.113232        2385
 rcp                                     0.090322        1628
 inisym                                  0.070260           1
 apply_precond                           0.036352         580
 overl1                                  0.029757         795
 setup_precond                           0.029700         215
 strelo                                  0.022319           8
 strkin                                  0.021677           8
 strehar                                 0.021265           8
 set_rsgf_all                            0.002165         818
 potlok_metagga                          0.001194         810
 truncate_high_frequency_w1              0.000962        1010
 brgrid                                  0.000618           1
 posmap                                  0.000405           2
 phaser                                  0.000361         506
 crpa_reader                             0.000234           1
 rotate_active_occupied_orbital          0.000104           8
 set_dd_magatom                          0.000046          16
 vectorpot                               0.000036           1
 shift_bands_between_low_high            0.000020          15
 ---------------------------------------------------------------
 
Profiling took   4.449771  1.482572  0.007380  0.006484 seconds
Profiling took   5.558754 seconds
