 vasp.6.3.2 27Jun22 (build Jan 03 2024 23:25:20) gamma-only                     
  
 executed on           IFC15_impi date 2024.06.05  05:06:56
 running  512 mpi-ranks, with    1 threads/rank
 distrk:  each k-point on  512 cores,    1 groups
 distr:  one band on NCORE=  32 cores,   16 groups


--------------------------------------------------------------------------------------------------------


 INCAR:
   ENCUT = 500.000000
   SIGMA = 0.010000
   EDIFF = 1.00e-05
   ALGO = A
   ISMEAR = 0
   NELM = 200
   NSW = 999
   NCORE = 32
   LCHARG = .TRUE.
   LWAVE = .TRUE.
   LREAL = Auto
   IBRION = 5
   POTIM = 0.015
   NFREE = 2
   ISYM = 0
   EDIFFG = -0.05
   GGA = BF
   LUSE_VDW = .TRUE.
   ZAB_VDW = -1.8867
   LBEEFENS = .TRUE.
   DIPOL = 0.5 0.5 0.65
   IDIPOL = 3
   LDIPOL = .TRUE.

 POTCAR:    PAW_PBE Au 04Oct2007                  
 POTCAR:    PAW_PBE O 08Apr2002                   
 POTCAR:    PAW_PBE Sr_sv 07Sep2000               
 POTCAR:    PAW_PBE Ti_sv 26Sep2005               
 POTCAR:    PAW_PBE H 15Jun2001                   
 -----------------------------------------------------------------------------
|                                                                             |
|               ----> ADVICE to this user running VASP <----                  |
|                                                                             |
|     You have switched on vdW-DFT.                                           |
|     This routine was written and supplied by Jiri Klimes. We recommend      |
|     that you carefully read and cite the following publications:            |
|       J. Klimes, D.R. Bowler, A. Michelides                                 |
|          J. Phys.: Cond Matt. 22 022201 (2010)                              |
|       J. Klimes, D.R. Bowler, A. Michelides                                 |
|          Phys. Rev. B. 83, 195131 (2011)                                    |
|     and references therein.                                                 |
|                                                                             |
 -----------------------------------------------------------------------------

 POTCAR:    PAW_PBE Au 04Oct2007                  
   SHA256 =  d0044ae04e2bdce24051b198fc5c053d722a5bc6fe3c3b100514a13fc5d2db88 Au/POTCAR             
   COPYR  = (c) Copyright 04Oct2007 Georg Kresse                                                    
   COPYR  = This file is part of the software VASP. Any use, copying, and all other rights are regul
   COPYR  = If you do not have a valid VASP license, you may not use, copy or distribute this file. 
   VRHFIN =Au: s1d10                                                                                
   LEXCH  = PE                                                                                      
   EATOM  =   926.0867 eV,   68.0654 Ry                                                             
                                                                                                    
   TITEL  = PAW_PBE Au 04Oct2007                                                                    
   LULTRA =        F    use ultrasoft PP ?                                                          
   IUNSCR =        1    unscreen: 0-lin 1-nonlin 2-no                                               
   RPACOR =    2.330    partial core radius                                                         
   POMASS =  196.966; ZVAL   =   11.000    mass and valenz                                          
   RCORE  =    2.500    outmost cutoff radius                                                       
   RWIGS  =    2.840; RWIGS  =    1.503    wigner-seitz radius (au A)                               
   ENMAX  =  229.943; ENMIN  =  172.457 eV                                                          
   ICORE  =        3    local potential                                                             
   LCOR   =        T    correct aug charges                                                         
   LPAW   =        T    paw PP                                                                      
   EAUG   =  356.670                                                                                
   DEXC   =    0.000                                                                                
   RMAX   =    2.562    core radius for proj-oper                                                   
   RAUG   =    1.300    factor for augmentation sphere                                              
   RDEP   =    2.598    radius for radial grids                                                     
   RDEPT  =    2.193    core radius for aug-charge                                                  
                                                                                                    
   Atomic configuration                                                                             
   16 entries                                                                                       
     n  l   j            E        occ.                                                              
     1  0  0.50    -80748.5001   2.0000                                                             
     2  0  0.50    -14244.7466   2.0000                                                             
     2  1  1.50    -12310.9591   6.0000                                                             
     3  0  0.50     -3362.1768   2.0000                                                             
     3  1  1.50     -2801.5463   6.0000                                                             
     3  2  2.50     -2203.8206  10.0000                                                             
     4  0  0.50      -729.8168   2.0000                                                             
     4  1  1.50      -546.0527   6.0000                                                             
     4  2  2.50      -325.7302  10.0000                                                             
     4  3  3.50       -81.1472  14.0000                                                             
     5  0  0.50      -108.3201   2.0000                                                             
     5  1  1.50       -59.7479   6.0000                                                             
     5  2  2.50        -6.8783  10.0000                                                             
     6  0  0.50        -5.7602   1.0000                                                             
     6  1  1.50        -6.8029   0.0000                                                             
     5  3  2.50        -1.3606   0.0000                                                             
   Description                                                                                      
     l       E           TYP  RCUT    TYP  RCUT                                                     
     2     -6.8782861     23  2.500                                                                 
     2     -8.2388687     23  2.500                                                                 
     0     -5.7601759     23  2.500                                                                 
     0     -0.8493231     23  2.500                                                                 
     1     -2.7211652     23  2.500                                                                 
     1     27.2116520     23  2.500                                                                 
     3     -1.3605826     23  2.500                                                                 
  local pseudopotential read in
  partial core-charges read in
  partial kinetic energy density read in
  atomic valenz-charges read in
  non local Contribution for L=           2  read in
    real space projection operators read in
  non local Contribution for L=           2  read in
    real space projection operators read in
  non local Contribution for L=           0  read in
    real space projection operators read in
  non local Contribution for L=           0  read in
    real space projection operators read in
  non local Contribution for L=           1  read in
    real space projection operators read in
  non local Contribution for L=           1  read in
    real space projection operators read in
    PAW grid and wavefunctions read in
 
   number of l-projection  operators is LMAX  =           6
   number of lm-projection operators is LMMAX =          18
 
 POTCAR:    PAW_PBE O 08Apr2002                   
   SHA256 =  818f92134a0a090dccd8ba1447fa70422a3b330e708bb4f08108d8ae51209ddf O/POTCAR              
   COPYR  = (c) Copyright 08Apr2002 Georg Kresse                                                    
   COPYR  = This file is part of the software VASP. Any use, copying, and all other rights are regul
   COPYR  = If you do not have a valid VASP license, you may not use, copy or distribute this file. 
   VRHFIN =O: s2p4                                                                                  
   LEXCH  = PE                                                                                      
   EATOM  =   432.3788 eV,   31.7789 Ry                                                             
                                                                                                    
   TITEL  = PAW_PBE O 08Apr2002                                                                     
   LULTRA =        F    use ultrasoft PP ?                                                          
   IUNSCR =        1    unscreen: 0-lin 1-nonlin 2-no                                               
   RPACOR =    1.200    partial core radius                                                         
   POMASS =   16.000; ZVAL   =    6.000    mass and valenz                                          
   RCORE  =    1.520    outmost cutoff radius                                                       
   RWIGS  =    1.550; RWIGS  =    0.820    wigner-seitz radius (au A)                               
   ENMAX  =  400.000; ENMIN  =  300.000 eV                                                          
   ICORE  =        2    local potential                                                             
   LCOR   =        T    correct aug charges                                                         
   LPAW   =        T    paw PP                                                                      
   EAUG   =  605.392                                                                                
   DEXC   =    0.000                                                                                
   RMAX   =    1.553    core radius for proj-oper                                                   
   RAUG   =    1.300    factor for augmentation sphere                                              
   RDEP   =    1.550    radius for radial grids                                                     
   RDEPT  =    1.329    core radius for aug-charge                                                  
                                                                                                    
   Atomic configuration                                                                             
    4 entries                                                                                       
     n  l   j            E        occ.                                                              
     1  0  0.50      -514.6923   2.0000                                                             
     2  0  0.50       -23.9615   2.0000                                                             
     2  1  0.50        -9.0305   4.0000                                                             
     3  2  1.50        -9.5241   0.0000                                                             
   Description                                                                                      
     l       E           TYP  RCUT    TYP  RCUT                                                     
     0    -23.9615318     23  1.200                                                                 
     0     -9.5240782     23  1.200                                                                 
     1     -9.0304911     23  1.520                                                                 
     1      8.1634956     23  1.520                                                                 
     2     -9.5240782      7  1.500                                                                 
  local pseudopotential read in
  partial core-charges read in
  partial kinetic energy density read in
  kinetic energy density of atom read in
  atomic valenz-charges read in
  non local Contribution for L=           0  read in
    real space projection operators read in
  non local Contribution for L=           0  read in
    real space projection operators read in
  non local Contribution for L=           1  read in
    real space projection operators read in
  non local Contribution for L=           1  read in
    real space projection operators read in
    PAW grid and wavefunctions read in
 
   number of l-projection  operators is LMAX  =           4
   number of lm-projection operators is LMMAX =           8
 
 POTCAR:    PAW_PBE Sr_sv 07Sep2000               
   SHA256 =  a8389d3481648516ee67182ee030b298d280b37e29cbbf2d8595f040d757c710 Sr_sv/POTCAR          
   COPYR  = (c) Copyright 07Sep2000 Georg Kresse                                                    
   COPYR  = This file is part of the software VASP. Any use, copying, and all other rights are regul
   COPYR  = If you do not have a valid VASP license, you may not use, copy or distribute this file. 
   VRHFIN =Sr: 4s4p5s                                                                               
   LEXCH  = PE                                                                                      
   EATOM  =   843.0319 eV,   61.9611 Ry                                                             
                                                                                                    
   TITEL  = PAW_PBE Sr_sv 07Sep2000                                                                 
   LULTRA =        F    use ultrasoft PP ?                                                          
   IUNSCR =        1    unscreen: 0-lin 1-nonlin 2-no                                               
   RPACOR =    2.200    partial core radius                                                         
   POMASS =   87.620; ZVAL   =   10.000    mass and valenz                                          
   RCORE  =    2.500    outmost cutoff radius                                                       
   RWIGS  =    4.040; RWIGS  =    2.138    wigner-seitz radius (au A)                               
   ENMAX  =  229.353; ENMIN  =  172.014 eV                                                          
   RCLOC  =    2.201    cutoff for local pot                                                        
   LCOR   =        T    correct aug charges                                                         
   LPAW   =        T    paw PP                                                                      
   EAUG   =  366.804                                                                                
   DEXC   =    0.000                                                                                
   RMAX   =    2.547    core radius for proj-oper                                                   
   RAUG   =    1.300    factor for augmentation sphere                                              
   RDEP   =    2.562    radius for radial grids                                                     
   RDEPT  =    2.128    core radius for aug-charge                                                  
                                                                                                    
   Atomic configuration                                                                             
   10 entries                                                                                       
     n  l   j            E        occ.                                                              
     1  0  0.50    -15934.8930   2.0000                                                             
     2  0  0.50     -2157.6250   2.0000                                                             
     2  1  1.50     -1917.0034   6.0000                                                             
     3  0  0.50      -333.7288   2.0000                                                             
     3  1  1.50      -256.0992   6.0000                                                             
     3  2  2.50      -127.9971  10.0000                                                             
     4  0  0.50       -40.8953   2.0000                                                             
     5  0  0.50        -3.5257   1.9990                                                             
     4  1  1.50       -22.8179   6.0000                                                             
     4  2  1.50        -1.2815   0.0010                                                             
   Description                                                                                      
     l       E           TYP  RCUT    TYP  RCUT                                                     
     0    -40.8953213     23  2.480                                                                 
     0     -3.5257161     23  2.480                                                                 
     1    -22.8178632     23  2.500                                                                 
     1    -24.1784458     23  2.500                                                                 
     2     -1.2814598     23  2.500                                                                 
     2      0.2279365     23  2.500                                                                 
  local pseudopotential read in
  partial core-charges read in
  partial kinetic energy density read in
  atomic valenz-charges read in
  non local Contribution for L=           0  read in
    real space projection operators read in
  non local Contribution for L=           0  read in
    real space projection operators read in
  non local Contribution for L=           1  read in
    real space projection operators read in
  non local Contribution for L=           1  read in
    real space projection operators read in
  non local Contribution for L=           2  read in
    real space projection operators read in
  non local Contribution for L=           2  read in
    real space projection operators read in
    PAW grid and wavefunctions read in
 
   number of l-projection  operators is LMAX  =           6
   number of lm-projection operators is LMMAX =          18
 
 POTCAR:    PAW_PBE Ti_sv 26Sep2005               
   SHA256 =  4d747badb5a5ea28d858fbac70885b3f8929d6fd9e5b0dbe1ecb9878dc164da1 Ti_sv/POTCAR          
   COPYR  = (c) Copyright 26Sep2005 Georg Kresse                                                    
   COPYR  = This file is part of the software VASP. Any use, copying, and all other rights are regul
   COPYR  = If you do not have a valid VASP license, you may not use, copy or distribute this file. 
   VRHFIN =Ti: 3p4s3d                                                                               
   LEXCH  = PE                                                                                      
   EATOM  =  1588.0892 eV,  116.7213 Ry                                                             
                                                                                                    
   TITEL  = PAW_PBE Ti_sv 26Sep2005                                                                 
   LULTRA =        F    use ultrasoft PP ?                                                          
   IUNSCR =        1    unscreen: 0-lin 1-nonlin 2-no                                               
   RPACOR =    2.000    partial core radius                                                         
   POMASS =   47.880; ZVAL   =   12.000    mass and valenz                                          
   RCORE  =    2.300    outmost cutoff radius                                                       
   RWIGS  =    2.300; RWIGS  =    1.217    wigner-seitz radius (au A)                               
   ENMAX  =  274.610; ENMIN  =  205.957 eV                                                          
   ICORE  =        3    local potential                                                             
   LCOR   =        T    correct aug charges                                                         
   LPAW   =        T    paw PP                                                                      
   EAUG   =  482.848                                                                                
   RMAX   =    2.348    core radius for proj-oper                                                   
   RAUG   =    1.300    factor for augmentation sphere                                              
   RDEP   =    2.381    radius for radial grids                                                     
   RDEPT  =    1.930    core radius for aug-charge                                                  
                                                                                                    
   Atomic configuration                                                                             
    8 entries                                                                                       
     n  l   j            E        occ.                                                              
     1  0  0.50     -4865.3608   2.0000                                                             
     2  0  0.50      -533.1368   2.0000                                                             
     2  1  1.50      -440.5031   6.0000                                                             
     3  0  0.50       -59.3186   2.0000                                                             
     4  0  0.50        -3.7291   1.0000                                                             
     3  1  1.50       -35.7012   6.0000                                                             
     3  2  2.50        -1.9157   3.0000                                                             
     4  3  2.50        -1.3606   0.0000                                                             
   Description                                                                                      
     l       E           TYP  RCUT    TYP  RCUT                                                     
     0    -59.3185931     23  1.800                                                                 
     0     -3.7290822     23  2.300                                                                 
     1    -35.7012045     23  2.300                                                                 
     1     -1.3605826     23  2.300                                                                 
     2     -1.9156920     23  2.300                                                                 
     2     -0.0236318     23  2.300                                                                 
     3     -1.3605826     23  2.300                                                                 
  local pseudopotential read in
  partial core-charges read in
  partial kinetic energy density read in
  atomic valenz-charges read in
  non local Contribution for L=           0  read in
    real space projection operators read in
  non local Contribution for L=           0  read in
    real space projection operators read in
  non local Contribution for L=           1  read in
    real space projection operators read in
  non local Contribution for L=           1  read in
    real space projection operators read in
  non local Contribution for L=           2  read in
    real space projection operators read in
  non local Contribution for L=           2  read in
    real space projection operators read in
    PAW grid and wavefunctions read in
 
   number of l-projection  operators is LMAX  =           6
   number of lm-projection operators is LMMAX =          18
 
 POTCAR:    PAW_PBE H 15Jun2001                   
   SHA256 =  030f79b5d3ab3cf0e668861823c8fb652ff669f3e15e46930bd03bfd63a607b6 H/POTCAR              
   COPYR  = (c) Copyright 15Jun2001 Georg Kresse                                                    
   COPYR  = This file is part of the software VASP. Any use, copying, and all other rights are regul
   COPYR  = If you do not have a valid VASP license, you may not use, copy or distribute this file. 
   VRHFIN =H: ultrasoft test                                                                        
   LEXCH  = PE                                                                                      
   EATOM  =    12.4884 eV,    0.9179 Ry                                                             
                                                                                                    
   TITEL  = PAW_PBE H 15Jun2001                                                                     
   LULTRA =        F    use ultrasoft PP ?                                                          
   IUNSCR =        0    unscreen: 0-lin 1-nonlin 2-no                                               
   RPACOR =    0.000    partial core radius                                                         
   POMASS =    1.000; ZVAL   =    1.000    mass and valenz                                          
   RCORE  =    1.100    outmost cutoff radius                                                       
   RWIGS  =    0.700; RWIGS  =    0.370    wigner-seitz radius (au A)                               
   ENMAX  =  250.000; ENMIN  =  200.000 eV                                                          
   RCLOC  =    0.701    cutoff for local pot                                                        
   LCOR   =        T    correct aug charges                                                         
   LPAW   =        T    paw PP                                                                      
   EAUG   =  400.000                                                                                
   RMAX   =    1.123    core radius for proj-oper                                                   
   RAUG   =    1.200    factor for augmentation sphere                                              
   RDEP   =    1.112    radius for radial grids                                                     
   RDEPT  =    0.926    core radius for aug-charge                                                  
                                                                                                    
   Atomic configuration                                                                             
    2 entries                                                                                       
     n  l   j            E        occ.                                                              
     1  0  0.50        -6.4927   1.0000                                                             
     2  1  0.50        -3.4015   0.0000                                                             
   Description                                                                                      
     l       E           TYP  RCUT    TYP  RCUT                                                     
     0     -6.4927494     23  1.100                                                                 
     0      6.8029130     23  1.100                                                                 
     1     -4.0817478     23  1.100                                                                 
  local pseudopotential read in
  atomic valenz-charges read in
  non local Contribution for L=           0  read in
    real space projection operators read in
  non local Contribution for L=           0  read in
    real space projection operators read in
  non local Contribution for L=           1  read in
    real space projection operators read in
    PAW grid and wavefunctions read in
 
   number of l-projection  operators is LMAX  =           3
   number of lm-projection operators is LMMAX =           5
 
 Optimization of the real space projectors (new method)

 maximal supplied QI-value         = 15.12
 optimisation between [QCUT,QGAM] = [ 11.34, 22.83] = [ 36.00,145.93] Ry 
 Optimized for a Real-space Cutoff    1.39 Angstroem

   l    n(q)    QCUT    max X(q) W(low)/X(q) W(high)/X(q)  e(spline) 
   2      9    11.338    60.898    0.39E-03    0.42E-03    0.21E-06
   2      9    11.338    58.894    0.40E-03    0.42E-03    0.22E-06
   0      9    11.338   109.617    0.13E-03    0.20E-04    0.13E-06
   0      9    11.338    75.026    0.13E-03    0.20E-04    0.13E-06
   1      9    11.338    16.344    0.33E-04    0.24E-03    0.18E-06
   1      9    11.338    10.160    0.26E-04    0.19E-03    0.15E-06
 Optimization of the real space projectors (new method)

 maximal supplied QI-value         = 24.76
 optimisation between [QCUT,QGAM] = [ 11.39, 22.77] = [ 36.31,145.25] Ry 
 Optimized for a Real-space Cutoff    1.00 Angstroem

   l    n(q)    QCUT    max X(q) W(low)/X(q) W(high)/X(q)  e(spline) 
   0      7    11.387    20.381    0.39E-03    0.13E-02    0.15E-06
   0      7    11.387    15.268    0.42E-03    0.14E-02    0.17E-06
   1      6    11.387     5.964    0.41E-03    0.11E-02    0.17E-06
   1      6    11.387     5.382    0.39E-03    0.87E-03    0.15E-06
 Optimization of the real space projectors (new method)

 maximal supplied QI-value         = 15.12
 optimisation between [QCUT,QGAM] = [ 11.34, 22.83] = [ 36.00,145.93] Ry 
 Optimized for a Real-space Cutoff    1.56 Angstroem

   l    n(q)    QCUT    max X(q) W(low)/X(q) W(high)/X(q)  e(spline) 
   0     11    11.338    11.565    0.26E-04    0.80E-05    0.70E-07
   0     11    11.338    10.214    0.41E-04    0.15E-04    0.15E-06
   1     10    11.338   189.983    0.18E-03    0.52E-04    0.42E-06
   1     10    11.338   193.105    0.19E-03    0.52E-04    0.42E-06
   2     10    11.338   115.941    0.22E-03    0.42E-03    0.43E-06
   2     10    11.338    76.444    0.21E-03    0.41E-03    0.42E-06
 Optimization of the real space projectors (new method)

 maximal supplied QI-value         = 16.25
 optimisation between [QCUT,QGAM] = [ 11.38, 22.75] = [ 36.24,144.96] Ry 
 Optimized for a Real-space Cutoff    1.27 Angstroem

   l    n(q)    QCUT    max X(q) W(low)/X(q) W(high)/X(q)  e(spline) 
   0      9    11.376    12.277    0.53E-04    0.25E-04    0.25E-07
   0      9    11.376    11.419    0.89E-04    0.67E-05    0.35E-07
   1      8    11.376     4.010    0.13E-03    0.11E-03    0.29E-07
   1      8    11.376     6.182    0.94E-04    0.19E-03    0.11E-06
   2      8    11.376    47.177    0.13E-03    0.88E-03    0.24E-06
   2      8    11.376    42.437    0.13E-03    0.86E-03    0.23E-06
 Optimization of the real space projectors (new method)

 maximal supplied QI-value         = 34.20
 optimisation between [QCUT,QGAM] = [ 11.29, 22.57] = [ 35.68,142.71] Ry 
 Optimized for a Real-space Cutoff    1.16 Angstroem

   l    n(q)    QCUT    max X(q) W(low)/X(q) W(high)/X(q)  e(spline) 
   0      8    11.287    19.460    0.40E-03    0.73E-03    0.16E-06
   0      8    11.287    12.209    0.38E-03    0.70E-03    0.15E-06
   1      7    11.287     4.655    0.22E-03    0.25E-04    0.22E-06
 -----------------------------------------------------------------------------
|                                                                             |
|               ----> ADVICE to this user running VASP <----                  |
|                                                                             |
|     You enforced a specific xc type in the INCAR file but a different       |
|     type was found in the POTCAR file.                                      |
|     I HOPE YOU KNOW WHAT YOU ARE DOING!                                     |
|                                                                             |
 -----------------------------------------------------------------------------

  PAW_PBE Au 04Oct2007                  :
 energy of atom  1       EATOM= -926.0867
 kinetic energy error for atom=    0.0042 (will be added to EATOM!!)
  PAW_PBE O 08Apr2002                   :
 energy of atom  2       EATOM= -432.3788
 kinetic energy error for atom=    0.0224 (will be added to EATOM!!)
  PAW_PBE Sr_sv 07Sep2000               :
 energy of atom  3       EATOM= -843.0319
 kinetic energy error for atom=    0.0012 (will be added to EATOM!!)
  PAW_PBE Ti_sv 26Sep2005               :
 energy of atom  4       EATOM=-1588.0892
 kinetic energy error for atom=    0.0046 (will be added to EATOM!!)
  PAW_PBE H 15Jun2001                   :
 energy of atom  5       EATOM=  -12.4884
 kinetic energy error for atom=    0.0020 (will be added to EATOM!!)
 
 
 POSCAR: Au O  Sr Ti H
  positions in cartesian coordinates
  No initial velocities read in
 exchange correlation table for  LEXCH =       17
   RHO(1)=    0.500       N(1)  =     2000
   RHO(2)=  100.500       N(2)  =     4000

 VTST: version 4.1, (05/19/21)

 CHAIN: initializing optimizer
 
 OPT: Using VASP Dynamics algorithm
 CHAIN: Read ICHAIN            0
 
 POSCAR: Au O  Sr Ti H
  positions in cartesian coordinates
  No initial velocities read in
 


--------------------------------------------------------------------------------------------------------


 ion  position               nearest neighbor table
   1  0.718  0.526  0.754-  16 2.71  15 2.72  14 2.77  44 2.83   2 2.84  29 2.95  46 3.05
   2  0.624  0.568  0.704- 264 2.08  15 2.81   1 2.84  46 2.87  48 2.91  16 2.92  12 2.94  36 3.06
                            11 3.31   5 3.47 380 3.70
   3  0.718  0.259  0.692- 294 2.06 253 2.07  32 2.65  43 2.81  27 2.83 401 3.05 370 4.02 371 4.04

   4  0.294  0.746  0.698- 310 2.06 266 2.07   9 2.81  23 2.82  50 3.02  42 3.22  45 3.60 368 4.20
                           372 4.22
   5  0.515  0.603  0.777-  26 2.69  48 2.75  47 2.90  13 2.90  12 2.90  16 2.97  39 3.06   6 3.16
                            49 3.40  31 3.43   2 3.47
   6  0.577  0.727  0.793-  36 2.73  18 2.73  17 2.77  47 2.82  13 2.94   5 3.16  48 3.17  16 3.50

   7  0.551  0.383  0.829-  10 2.79  33 2.81  29 2.88  20 2.89  34 2.97  31 2.98  12 3.03  41 3.37

   8  0.242  0.465  0.709- 309 2.11  19 2.68  45 2.83  24 2.83  40 2.94  35 3.01 378 4.15
   9  0.284  0.659  0.765-  45 2.70  30 2.74  50 2.75  24 2.79   4 2.81
  10  0.603  0.286  0.787-  41 2.79   7 2.79  27 2.79  43 2.80  32 2.80  25 3.04  34 3.30
  11  0.514  0.484  0.678- 279 2.11 247 2.15  26 2.70  12 2.77  49 2.91  34 2.91 389 3.13   2 3.31
                            46 3.34 375 3.55  37 3.58 386 4.05
  12  0.562  0.485  0.762-  11 2.77  34 2.79  29 2.84  49 2.85  31 2.89   5 2.90   2 2.94  46 2.98
                             7 3.03  16 3.03
  13  0.464  0.699  0.828- 459 1.82  18 2.82  50 2.83  47 2.89   5 2.90   6 2.94  30 2.98  39 3.07

  14  0.765  0.432  0.706- 254 2.01  44 2.72   1 2.77  46 2.79  43 2.88 363 3.73 370 4.24
  15  0.734  0.616  0.694- 292 2.09 250 2.10  36 2.68   1 2.72   2 2.81  28 3.24 380 3.42 365 3.73

  16  0.636  0.583  0.800-   1 2.71  47 2.77  36 2.79  31 2.83   2 2.92   5 2.97  12 3.03  29 3.17
                             6 3.50
  17  0.595  0.785  0.713- 257 2.09   6 2.77  28 2.78  48 2.95  18 2.97  36 3.11 379 4.17 384 4.33

  18  0.483  0.780  0.757-   6 2.73  23 2.80  13 2.82  50 2.88  42 2.90  17 2.97  48 3.37
  19  0.349  0.501  0.698- 291 2.10   8 2.68  49 2.88  37 2.89  24 2.92  40 2.95  45 2.97  26 3.04
                           368 4.13 369 4.27
  20  0.431  0.371  0.815-  33 2.77  21 2.79   7 2.89  41 2.91  49 2.91  40 2.96  38 3.04  34 3.16

  21  0.372  0.298  0.755-  37 2.77  35 2.77  20 2.79  40 2.84  22 2.86  41 2.87
  22  0.442  0.228  0.697- 302 2.01 289 2.16  41 2.74  25 2.79  21 2.86  37 3.59 376 3.87 367 4.35

  23  0.391  0.818  0.706- 290 2.06  42 2.78  18 2.80  50 2.81   4 2.82 372 3.64 384 4.10
  24  0.289  0.536  0.779-   9 2.79  38 2.82   8 2.83  40 2.87  45 2.88  30 2.89  19 2.92
  25  0.557  0.209  0.712- 311 2.13  22 2.79  27 2.85  41 2.85  32 2.87  10 3.04 376 3.95
  26  0.454  0.580  0.703- 291 2.12   5 2.69  11 2.70  42 2.73  49 2.85  48 2.87  19 3.04 386 3.63

  27  0.614  0.320  0.697- 263 2.03  43 2.76  10 2.79   3 2.83  46 2.83  25 2.85  34 2.86  32 3.52
                           370 3.58 375 4.21
  28  0.705  0.758  0.689- 293 2.05 250 2.06  36 2.64  17 2.78 400 3.14  15 3.24 379 3.80 380 4.19

  29  0.656  0.444  0.813-  12 2.84  31 2.85  44 2.85   7 2.88  43 2.92   1 2.95  16 3.17  46 3.49

  30  0.364  0.618  0.824- 459 1.86   9 2.74  38 2.86  39 2.89  24 2.89  13 2.98  50 3.05
  31  0.569  0.510  0.857-  33 2.76  16 2.83  29 2.85  39 2.88  12 2.89  47 2.91   7 2.98   5 3.43

  32  0.666  0.191  0.751-   3 2.65  10 2.80  25 2.87  27 3.52  43 3.56
  33  0.472  0.449  0.879-  31 2.76  20 2.77  39 2.77   7 2.81  38 2.81
  34  0.515  0.377  0.734-  12 2.79  41 2.80  27 2.86  49 2.87  11 2.91   7 2.97  37 3.07  20 3.16
                            10 3.30 375 4.17
  35  0.283  0.338  0.703- 267 2.06  21 2.77  40 2.82  37 2.91   8 3.01 369 3.54 378 4.10
  36  0.669  0.681  0.749-  28 2.64  15 2.68   6 2.73  16 2.79   2 3.06  17 3.11  48 3.31
  37  0.398  0.382  0.690- 303 2.03 289 2.13  21 2.77  19 2.89  35 2.91  40 3.01  49 3.06  34 3.07
                           369 3.39  11 3.58  22 3.59 375 3.77
  38  0.376  0.492  0.834-  33 2.81  24 2.82  40 2.85  49 2.85  30 2.86  39 2.91  20 3.04
  39  0.464  0.571  0.867- 459 1.94  33 2.77  47 2.85  31 2.88  30 2.89  38 2.91   5 3.06  13 3.07

  40  0.327  0.414  0.770-  35 2.82  21 2.84  38 2.85  24 2.87   8 2.94  19 2.95  20 2.96  37 3.01
                            49 3.09
  41  0.487  0.268  0.775-  22 2.74  10 2.79  34 2.80  25 2.85  21 2.87  20 2.91   7 3.37
  42  0.422  0.698  0.700- 256 2.04  26 2.73  23 2.78  50 2.80  18 2.90  48 2.97   4 3.22 386 4.06
                           368 4.10
  43  0.699  0.347  0.757-  27 2.76  10 2.80   3 2.81  44 2.81  14 2.88  29 2.92  46 3.03  32 3.56

  44  0.774  0.429  0.796-  14 2.72  43 2.81   1 2.83  29 2.85
  45  0.256  0.590  0.695- 265 2.03 310 2.11   9 2.70   8 2.83  24 2.88  19 2.97 368 3.60   4 3.60
                           373 3.72
  46  0.648  0.442  0.697- 279 2.19  14 2.79  27 2.83   2 2.87  12 2.98  43 3.03   1 3.05  11 3.34
                           370 3.49  29 3.49
  47  0.565  0.640  0.860-  16 2.77   6 2.82  39 2.85  13 2.89   5 2.90  31 2.91
  48  0.544  0.666  0.701- 280 2.10   5 2.75  26 2.87   2 2.91  17 2.95  42 2.97   6 3.17  36 3.31
                            18 3.37 386 3.47
  49  0.443  0.475  0.756-  12 2.85  38 2.85  26 2.85  34 2.87  19 2.88  11 2.91  20 2.91  37 3.06
                            40 3.09   5 3.40
  50  0.371  0.740  0.778-   9 2.75  42 2.80  23 2.81  13 2.83  18 2.88   4 3.02  30 3.05
  51  0.250  0.189  0.454- 448 1.97 418 2.13 319 2.73 360 2.81 342 2.82 327 2.85
  52  0.749  0.938  0.455- 417 1.95 444 2.00 350 2.82 339 2.84 322 2.84 332 2.88
  53  0.749  0.689  0.457- 432 1.97 446 2.04 325 2.78 362 2.84 348 2.84 316 2.88
  54  0.749  0.438  0.456- 422 1.99 458 2.01 323 2.71 347 2.83 359 2.84 349 2.85
  55  0.750  0.190  0.456- 445 1.99 423 2.11 324 2.75 335 2.80 358 2.84 346 2.85
  56  0.417  0.936  0.454- 424 1.99 440 2.01 357 2.76 345 2.79 329 2.87 320 2.92
  57  0.417  0.685  0.455- 414 1.91 443 2.05 356 2.77 344 2.78 321 2.83 331 2.90
  58  0.417  0.435  0.454- 415 1.96 442 2.01 355 2.77 343 2.77 333 2.83 318 2.85
  59  0.084  0.687  0.453- 439 1.97 413 2.09 352 2.76 340 2.79 330 2.81 336 2.94
  60  0.084  0.937  0.453- 436 1.98 412 2.11 353 2.77 341 2.79 326 2.89 338 2.91
  61  0.083  0.437  0.453- 438 1.97 421 2.11 361 2.77 351 2.78 328 2.79 317 2.93
  62  0.084  0.187  0.453- 437 1.98 433 2.12 360 2.76 385 2.78 327 2.87 337 2.89
  63  0.917  0.812  0.454- 434 1.98 411 2.12 362 2.75 339 2.80 341 2.81 336 2.87
  64  0.916  0.562  0.454- 435 1.98 410 2.11 349 2.78 316 2.79 340 2.80 317 2.89
  65  0.251  0.439  0.455- 449 1.98 420 2.06 318 2.70 343 2.81 351 2.85 328 2.86
  66  0.916  0.062  0.454- 455 1.98 430 2.11 358 2.79 385 2.81 332 2.85 338 2.89
  67  0.916  0.312  0.454- 456 1.98 429 2.09 359 2.79 361 2.80 335 2.81 337 2.89
  68  0.417  0.187  0.454- 441 1.98 416 2.07 354 2.78 342 2.79 334 2.81 319 2.88
  69  0.252  0.687  0.456- 419 1.99 450 2.03 321 2.75 344 2.79 352 2.87 330 2.90
  70  0.917  0.937  0.453- 455 1.98 411 2.11 341 2.78 339 2.78 332 2.89 338 2.90
  71  0.583  0.189  0.455- 452 1.98 426 2.09 334 2.72 324 2.79 354 2.82 346 2.84
  72  0.000  0.125  0.498- 430 1.97 433 1.98 385 2.74 337 2.79 338 2.80
  73  0.584  0.810  0.455- 454 1.98 431 2.10 325 2.72 331 2.75 350 2.84 357 2.85
  74  1.000  0.373  0.498- 429 1.94 421 1.95 361 2.74 337 2.77 317 2.85
  75  1.000  0.627  0.498- 413 1.93 410 1.94 340 2.72 336 2.77 317 2.84
  76  0.334  0.125  0.498- 416 1.95 418 2.01 342 2.74 319 2.74 320 2.78 367 3.45
  77  0.000  0.875  0.500- 412 1.97 411 1.97 341 2.78 336 2.78 338 2.79
  78  0.333  0.874  0.499- 424 1.97 425 2.00 321 2.75 345 2.75 320 2.85 372 3.12
  79  0.666  0.126  0.499- 426 1.96 423 2.01 324 2.72 346 2.76 322 2.81 371 3.38
  80  0.336  0.625  0.504- 414 1.92 419 2.09 368 2.74 321 2.81 318 2.81 344 2.92
  81  0.334  0.378  0.503- 415 1.94 420 2.08 318 2.70 369 2.70 343 2.88 319 2.91
  82  0.666  0.379  0.503- 428 1.94 422 2.06 323 2.70 370 2.73 347 2.89 324 2.92
  83  0.915  0.687  0.453- 434 1.97 410 2.10 316 2.75 340 2.80 362 2.80 336 2.94
  84  0.916  0.437  0.454- 435 1.98 429 2.10 359 2.78 349 2.78 361 2.80 317 2.91
  85  0.916  0.187  0.453- 456 1.98 430 2.12 358 2.76 335 2.79 385 2.79 337 2.92
  86  0.583  0.936  0.454- 451 2.00 431 2.05 357 2.77 350 2.79 329 2.86 322 2.89
  87  0.583  0.686  0.455- 427 1.91 454 2.02 356 2.78 348 2.80 325 2.84 331 2.85
  88  0.583  0.439  0.456- 453 2.01 428 2.01 333 2.71 323 2.79 355 2.83 347 2.85
  89  0.250  0.936  0.454- 425 1.94 447 2.01 353 2.78 345 2.78 320 2.90 326 2.92
  90  0.665  0.626  0.503- 427 1.93 432 2.06 380 2.72 325 2.81 323 2.82 348 2.88
  91  0.585  0.562  0.455- 427 1.99 453 2.00 333 2.77 323 2.79 348 2.79 356 2.84
  92  0.583  0.062  0.455- 451 2.00 426 2.02 354 2.80 346 2.82 322 2.85 329 2.85
  93  0.917  0.687  0.361- 434 1.97 340 2.79 316 2.79
  94  0.917  0.437  0.361- 435 1.97 361 2.79 359 2.79
  95  0.917  0.188  0.361- 456 1.97 385 2.79 358 2.79
  96  0.583  0.938  0.361- 451 1.97 357 2.79 350 2.79
  97  0.583  0.687  0.361- 454 1.97 356 2.79 348 2.79
  98  0.583  0.437  0.361- 453 1.97 355 2.79 347 2.79
  99  0.583  0.188  0.361- 452 1.97 354 2.79 346 2.79
 100  0.250  0.938  0.361- 447 1.97 353 2.79 345 2.79
 101  0.917  0.938  0.361- 455 1.97 341 2.79 339 2.79
 102  0.250  0.687  0.361- 450 1.97 352 2.79 344 2.79
 103  0.250  0.188  0.361- 448 1.97 360 2.79 342 2.79
 104  0.750  0.938  0.361- 444 1.97 350 2.79 339 2.79
 105  0.750  0.687  0.361- 446 1.97 348 2.79 316 2.79
 106  0.750  0.437  0.361- 458 1.97 347 2.79 359 2.79
 107  0.750  0.188  0.361- 445 1.97 346 2.79 358 2.79
 108  0.417  0.938  0.361- 440 1.97 345 2.79 357 2.79
 109  0.417  0.687  0.361- 443 1.97 344 2.79 356 2.79
 110  0.417  0.437  0.361- 442 1.97 343 2.79 355 2.79
 111  0.250  0.437  0.361- 449 1.97 351 2.79 343 2.79
 112  0.083  0.063  0.361- 436 1.97 385 2.79 360 2.79
 113  0.083  0.312  0.361- 437 1.97 361 2.79 351 2.79
 114  0.083  0.563  0.361- 438 1.97 352 2.79 340 2.79
 115  0.917  0.312  0.361- 456 1.97 361 2.79 359 2.79
 116  0.917  0.063  0.361- 455 1.97 385 2.79 358 2.79
 117  0.583  0.812  0.361- 454 1.97 357 2.79 350 2.79
 118  0.583  0.563  0.361- 453 1.97 356 2.79 348 2.79
 119  0.583  0.312  0.361- 452 1.97 355 2.79 347 2.79
 120  0.583  0.063  0.361- 451 1.97 354 2.79 346 2.79
 121  0.250  0.812  0.361- 450 1.97 353 2.79 345 2.79
 122  0.250  0.563  0.361- 449 1.97 352 2.79 344 2.79
 123  0.250  0.312  0.361- 448 1.97 351 2.79 343 2.79
 124  0.250  0.063  0.361- 447 1.97 360 2.79 342 2.79
 125  0.750  0.812  0.361- 446 1.97 350 2.79 339 2.79
 126  0.750  0.563  0.361- 458 1.97 348 2.79 316 2.79
 127  0.750  0.312  0.361- 445 1.97 347 2.79 359 2.79
 128  0.750  0.063  0.361- 444 1.97 346 2.79 358 2.79
 129  0.417  0.812  0.361- 443 1.97 345 2.79 357 2.79
 130  0.417  0.563  0.361- 442 1.97 344 2.79 356 2.79
 131  0.417  0.312  0.361- 441 1.97 343 2.79 355 2.79
 132  0.417  0.063  0.361- 440 1.97 342 2.79 354 2.79
 133  0.083  0.812  0.361- 439 1.97 353 2.79 341 2.79
 134  0.417  0.188  0.361- 441 1.97 342 2.79 354 2.79
 135  0.083  0.938  0.361- 436 1.97 353 2.79 341 2.79
 136  0.083  0.687  0.361- 439 1.97 352 2.79 340 2.79
 137  0.083  0.437  0.361- 438 1.97 361 2.79 351 2.79
 138  0.833  0.500  0.407- 458 1.97 435 1.97 316 2.79 359 2.79 349 2.88
 139  0.833  0.750  0.407- 446 1.97 434 1.97 339 2.79 316 2.79 362 2.87
 140  0.084  0.062  0.454- 436 1.98 433 2.11 360 2.80 385 2.81 326 2.84 338 2.88
 141  0.084  0.312  0.454- 437 1.97 421 2.10 351 2.79 361 2.80 337 2.87 327 2.89
 142  0.084  0.562  0.454- 438 1.98 413 2.11 328 2.75 352 2.79 340 2.80 317 2.91
 143  0.083  0.812  0.454- 439 1.98 412 2.11 330 2.77 353 2.80 341 2.81 336 2.88
 144  0.417  0.062  0.455- 416 1.96 440 2.00 354 2.83 342 2.83 320 2.84 329 2.84
 145  0.415  0.311  0.457- 415 1.91 441 2.04 334 2.81 319 2.82 343 2.84 355 2.88
 146  0.416  0.559  0.458- 414 1.97 442 2.02 333 2.73 318 2.74 344 2.88 356 2.90
 147  0.417  0.810  0.455- 443 1.97 424 2.09 321 2.74 331 2.78 345 2.85 357 2.85
 148  0.750  0.064  0.453- 444 1.99 423 2.02 346 2.76 358 2.78 322 2.90 332 2.93
 149  0.747  0.314  0.455- 422 1.99 445 2.02 347 2.75 324 2.81 359 2.83 335 2.94
 150  0.748  0.564  0.454- 432 1.99 458 2.01 348 2.74 323 2.76 316 2.81 349 2.93
 151  0.749  0.813  0.453- 446 1.97 417 2.09 350 2.77 339 2.79 325 2.83 362 2.87
 152  0.250  0.062  0.454- 447 1.98 418 2.11 342 2.80 360 2.81 320 2.84 326 2.88
 153  0.915  0.313  0.547- 429 1.84 409 2.21 335 2.71 337 2.75 363 2.87 381 3.34
 154  0.252  0.314  0.454- 420 1.97 448 2.01 343 2.74 319 2.77 351 2.82 327 2.96
 155  0.252  0.565  0.454- 419 1.99 449 2.01 344 2.74 318 2.76 352 2.80 328 2.93
 156  0.250  0.811  0.455- 450 1.98 425 2.07 321 2.76 330 2.82 345 2.83 353 2.84
 157  0.833  0.250  0.407- 445 1.97 456 1.97 359 2.79 358 2.79 335 2.89
 158  0.584  0.314  0.454- 428 1.95 452 2.02 347 2.76 355 2.80 334 2.85 324 2.86
 159  0.833  0.000  0.407- 444 1.97 455 1.97 358 2.79 339 2.79 332 2.98
 160  0.500  0.500  0.407- 453 1.97 442 1.97 355 2.79 356 2.79 333 2.80
 161  0.083  0.188  0.361- 437 1.97 385 2.79 360 2.79
 162  0.000  0.000  0.407- 455 1.97 436 1.97 385 2.79 341 2.79 338 2.98
 163  0.000  0.250  0.407- 456 1.97 437 1.97 361 2.79 385 2.79 337 2.97
 164  0.000  0.500  0.407- 435 1.97 438 1.97 340 2.79 361 2.79 317 3.01
 165  0.000  0.750  0.407- 434 1.97 439 1.97 341 2.79 340 2.79 336 2.99
 166  0.333  0.000  0.407- 440 1.97 447 1.97 342 2.79 345 2.79 320 2.96
 167  0.333  0.250  0.407- 441 1.97 448 1.97 343 2.79 342 2.79 319 2.87
 168  0.333  0.500  0.407- 442 1.97 449 1.97 343 2.79 344 2.79 318 2.82
 169  0.333  0.750  0.407- 443 1.97 450 1.97 345 2.79 344 2.79 321 2.84
 170  0.667  0.000  0.407- 444 1.97 451 1.97 346 2.79 350 2.79 322 2.96
 171  0.667  0.250  0.407- 445 1.97 452 1.97 347 2.79 346 2.79 324 2.88
 172  0.667  0.500  0.407- 458 1.97 453 1.97 347 2.79 348 2.79 323 2.81
 173  0.667  0.750  0.407- 446 1.97 454 1.97 350 2.79 348 2.79 325 2.86
 174  0.167  0.000  0.407- 447 1.97 436 1.97 360 2.79 353 2.79 326 2.98
 175  0.167  0.250  0.407- 448 1.97 437 1.97 351 2.79 360 2.79 327 2.98
 176  0.167  0.500  0.407- 449 1.97 438 1.97 351 2.79 352 2.79 328 2.85
 177  0.167  0.750  0.407- 450 1.97 439 1.97 353 2.79 352 2.79 330 2.89
 178  0.500  0.000  0.407- 451 1.97 440 1.97 354 2.79 357 2.79 329 2.95
 179  0.500  0.250  0.407- 452 1.97 441 1.97 355 2.79 354 2.79 334 2.85
 180  0.500  0.750  0.407- 454 1.97 443 1.97 357 2.79 356 2.79 331 2.91
 181  0.167  0.124  0.499- 418 1.96 433 2.00 326 2.76 360 2.77 327 2.77
 182  0.918  0.063  0.547- 430 1.84 387 2.20 338 2.70 332 2.72 315 3.20 383 3.25
 183  0.168  0.873  0.500- 425 1.93 412 2.03 330 2.72 353 2.79 326 2.86
 184  0.252  0.188  0.547- 418 1.87 395 2.12 319 2.64 327 2.72 367 3.13 377 3.33
 185  0.749  0.934  0.548- 417 1.82 402 2.27 322 2.77 332 2.78 379 2.92 364 3.16
 186  0.752  0.680  0.553- 432 1.96 400 1.96 380 2.65 365 2.85 362 2.97 325 3.01
 187  0.753  0.435  0.550- 422 1.93 399 2.05 370 2.73 349 2.82 323 2.87 363 2.93
 188  0.423  0.444  0.546- 408 1.88 415 2.06 333 2.61 318 2.84 375 2.88 369 3.12
 189  0.423  0.688  0.547- 414 1.95 398 1.99 331 2.67 386 2.76 321 2.88 368 2.94
 190  0.748  0.184  0.551- 423 1.94 401 1.95 324 2.80 335 2.89 371 2.99 383 3.17
 191  0.416  0.937  0.546- 424 1.84 396 2.26 320 2.71 329 2.72 372 2.88 384 3.07
 192  0.084  0.939  0.546- 412 1.84 406 2.18 326 2.67 338 2.68 374 3.28 366 3.36
 193  0.416  0.191  0.546- 397 1.85 416 2.03 319 2.72 334 2.73 376 3.10 367 3.25
 194  0.087  0.690  0.545- 413 1.85 405 2.22 330 2.62 336 2.72 373 2.78
 195  0.083  0.438  0.545- 421 1.84 404 2.23 317 2.66 328 2.68 378 3.06 381 3.35
 196  0.084  0.189  0.546- 433 1.85 403 2.19 327 2.64 337 2.67 315 3.30 377 3.36
 197  0.499  0.125  0.500- 416 1.98 426 1.99 334 2.73 354 2.78 329 2.82 376 3.19
 198  1.000  0.499  0.594- 457 1.94 404 1.95 317 2.62 381 2.89 382 3.11
 199  0.999  0.754  0.592- 405 1.94 407 1.96 336 2.57 366 2.84 382 3.31
 200  0.335  0.254  0.593- 397 1.90 395 2.06 369 2.67 319 2.70 367 3.07
 201  0.334  1.000  0.592- 396 2.00 394 2.04 320 2.59 372 2.72 367 2.75
 202  1.000  0.998  0.593- 387 2.00 406 2.00 338 2.59 315 2.88 366 2.89
 203  0.001  0.250  0.592- 409 1.95 403 1.99 337 2.58 381 2.94 315 2.95
 204  0.333  0.497  0.591- 408 1.85 390 2.16 318 2.70 369 2.75 368 2.84
 205  0.335  0.740  0.591- 398 1.93 391 2.06 368 2.59 321 2.70 372 3.12
 206  0.663  0.247  0.591- 392 1.88 401 2.14 324 2.64 370 2.79 371 2.81
 207  0.666  0.000  0.592- 393 2.01 402 2.02 322 2.59 379 2.71 371 2.83
 208  0.666  0.742  0.590- 388 1.95 400 2.05 380 2.58 325 2.65 379 3.14
 209  0.667  0.494  0.591- 389 1.81 399 2.13 370 2.72 323 2.72 380 2.97
 210  0.167  0.998  0.592- 394 1.97 406 2.02 326 2.58 374 2.91 377 2.91
 211  0.169  0.249  0.593- 395 1.94 403 2.04 327 2.61 378 2.76 377 2.95
 212  0.171  0.750  0.595- 391 1.87 405 2.15 330 2.75 373 2.76 374 2.84
 213  0.248  0.436  0.549- 390 1.94 420 1.98 369 2.65 318 2.81 328 2.84 378 3.04
 214  0.165  0.503  0.588- 390 1.83 404 2.05 328 2.57 373 2.80 378 3.00
 215  0.249  0.683  0.552- 391 1.96 419 1.97 368 2.74 373 2.89 330 2.91 321 2.93
 216  0.581  0.186  0.549- 426 1.94 392 1.98 334 2.73 324 2.83 376 2.93 371 3.07
 217  0.915  0.813  0.547- 411 1.84 407 2.18 362 2.68 336 2.72 364 3.22 366 3.29
 218  0.917  0.563  0.547- 410 1.84 457 2.22 317 2.68 349 2.71 365 2.85
 219  0.581  0.560  0.550- 389 1.89 427 2.09 386 2.69 333 2.75 380 2.82 323 2.87
 220  0.586  0.815  0.550- 431 1.92 388 2.06 325 2.75 331 2.82 379 2.93 384 3.02
 221  0.583  0.312  0.546- 428 1.90 392 2.10 334 2.74 324 2.76 375 2.77 370 2.87
 222  0.583  0.063  0.547- 426 1.85 393 2.21 329 2.72 322 2.72 376 2.94 371 3.08
 223  0.254  0.813  0.551- 391 1.82 425 2.07 321 2.77 372 2.87 330 2.89 374 3.19
 224  0.252  0.559  0.544- 419 1.91 390 2.03 318 2.63 328 2.78 368 2.88 373 3.20
 225  0.249  0.314  0.546- 420 1.85 395 2.30 369 2.65 327 2.73 319 2.73 378 3.04
 226  0.251  0.062  0.547- 418 1.84 394 2.24 320 2.68 326 2.73 367 3.03 377 3.27
 227  0.748  0.808  0.546- 400 1.83 417 2.03 325 2.67 362 2.75 379 3.14 364 3.30
 228  0.746  0.558  0.545- 432 1.96 399 1.97 323 2.61 349 2.78 380 2.85 365 3.23
 229  0.413  0.812  0.548- 398 1.95 424 1.97 321 2.71 331 2.79 372 2.91 384 3.11
 230  0.748  0.060  0.545- 423 1.84 402 2.21 322 2.63 332 2.68 371 3.16 383 3.36
 231  0.748  0.311  0.548- 401 1.98 422 1.98 370 2.66 324 2.74 335 2.84 363 3.03
 232  0.416  0.320  0.553- 397 1.96 415 1.98 375 2.66 369 2.73 319 2.99 334 2.99
 233  0.420  0.565  0.556- 408 1.89 414 2.13 386 2.65 368 2.71 333 2.92 318 3.05
 234  0.417  0.065  0.547- 416 1.84 396 2.25 320 2.74 329 2.77 376 2.94 367 3.07
 235  0.085  0.813  0.547- 412 1.84 405 2.18 330 2.68 336 2.74 374 3.17 366 3.32
 236  0.082  0.564  0.546- 413 1.84 404 2.23 317 2.69 328 2.73 373 2.83
 237  0.086  0.313  0.547- 421 1.84 403 2.24 327 2.68 337 2.76 378 2.88 381 3.35
 238  0.082  0.063  0.548- 433 1.84 406 2.22 338 2.70 326 2.71 315 3.18 377 3.28
 239  0.916  0.939  0.546- 411 1.84 387 2.20 332 2.65 338 2.70 364 3.25 366 3.33
 240  0.913  0.689  0.545- 410 1.84 407 2.23 362 2.63 336 2.72 365 2.82
 241  0.584  0.938  0.546- 431 1.84 393 2.25 322 2.68 329 2.69 379 2.96 384 3.07
 242  0.917  0.189  0.545- 430 1.84 409 2.18 335 2.66 337 2.68 383 3.30 315 3.31
 243  0.916  0.437  0.546- 429 1.85 457 2.24 349 2.67 317 2.70 363 2.94 381 3.35
 244  0.576  0.436  0.552- 389 1.94 428 2.05 375 2.63 333 2.75 370 2.94 323 3.02
 245  0.580  0.686  0.547- 427 1.92 388 2.12 386 2.66 331 2.71 380 2.81 325 2.84
 246  0.252  0.937  0.545- 425 1.83 394 2.22 320 2.67 326 2.74 372 2.92 374 3.31
 247  0.498  0.505  0.609- 408 2.10  11 2.15 389 2.25 386 2.73 375 3.01 333 3.27
 248  0.499  0.253  0.590- 397 1.99 392 2.04 375 2.64 334 2.65 376 2.96
 249  0.500  1.000  0.591- 396 2.00 393 2.00 329 2.57 376 2.76 384 2.81
 250  0.754  0.694  0.658-  28 2.06  15 2.10 400 2.40 365 3.02 380 3.20
 251  0.749  0.937  0.640- 402 1.80 364 2.49 379 2.53
 252  0.253  0.186  0.641- 395 1.74 367 2.52 377 2.55
 253  0.745  0.195  0.647- 401 1.99   3 2.07 371 2.68 383 2.73
 254  0.756  0.436  0.639- 399 1.98  14 2.01 363 2.60 370 2.82
 255  0.417  0.935  0.640- 396 1.79 384 2.53 372 2.58
 256  0.422  0.676  0.634- 398 2.03  42 2.04 386 2.56 368 2.64
 257  0.590  0.811  0.646- 388 1.94  17 2.09 379 2.64 384 2.80
 258  0.916  0.062  0.641- 387 1.80 383 2.49 315 2.50
 259  0.913  0.562  0.643- 457 1.79 382 2.46 365 2.54
 260  0.915  0.312  0.640- 409 1.80 381 2.51 363 2.52
 261  0.914  0.813  0.642- 407 1.79 364 2.50 366 2.51
 262  0.582  0.065  0.640- 393 1.79 371 2.51 376 2.52
 263  0.583  0.320  0.634- 392 1.97  27 2.03 375 2.53 370 2.67
 264  0.592  0.564  0.640- 389 1.99   2 2.08 380 2.64 386 2.83
 265  0.247  0.574  0.629- 390 1.99  45 2.03 368 2.54 373 2.55
 266  0.261  0.798  0.647- 391 1.95   4 2.07 372 2.82 374 2.93
 267  0.250  0.316  0.642- 395 1.94  35 2.06 378 2.60 369 2.65
 268  0.251  0.059  0.642- 394 1.79 367 2.49 377 2.50
 269  0.917  0.563  0.361- 435 1.97 340 2.79 316 2.79
 270  0.500  0.374  0.500- 415 1.97 428 2.00 355 2.79 333 2.81 334 2.81 375 2.85
 271  0.500  0.873  0.501- 424 1.98 431 1.99 331 2.68 357 2.82 329 2.83 384 3.25
 272  0.500  0.621  0.500- 427 1.98 414 1.98 333 2.71 356 2.79 386 2.82 331 2.94
 273  0.832  0.623  0.500- 432 1.89 410 2.05 349 2.75 316 2.79 362 2.87 365 3.10
 274  0.833  0.874  0.499- 417 1.95 411 2.01 362 2.74 339 2.75 332 2.82
 275  0.833  0.373  0.499- 422 1.90 429 2.04 359 2.77 335 2.79 349 2.83 363 3.15
 276  0.833  0.125  0.500- 423 1.95 430 2.01 335 2.77 332 2.78 358 2.78
 277  0.167  0.376  0.498- 420 1.90 421 2.02 351 2.73 328 2.76 327 2.87 378 3.29
 278  0.168  0.624  0.500- 419 1.89 413 2.07 328 2.78 352 2.79 330 2.84 373 3.06
 279  0.581  0.438  0.646- 389 2.11  11 2.11  46 2.19 375 2.85 370 3.02
 280  0.580  0.685  0.639- 388 1.87  48 2.10 386 2.62 380 2.78
 281  0.917  0.187  0.641- 409 1.79 383 2.49 315 2.52
 282  0.582  0.935  0.639- 393 1.80 384 2.50 379 2.51
 283  0.830  0.751  0.593- 400 1.86 407 2.10 362 2.71 365 2.79 364 2.89
 284  0.832  0.248  0.592- 401 1.84 409 2.12 335 2.65 363 2.81 383 2.87
 285  0.833  0.504  0.589- 399 1.83 457 2.06 349 2.59 365 2.78 363 2.96
 286  0.832  0.002  0.592- 402 1.99 387 2.02 332 2.57 383 2.86 364 2.92
 287  0.501  0.756  0.593- 388 1.99 398 2.01 331 2.67 384 2.73 386 2.93
 288  0.418  0.065  0.640- 396 1.80 367 2.51 376 2.54
 289  0.427  0.305  0.655-  37 2.13  22 2.16 397 2.31 375 2.91 369 3.40
 290  0.412  0.813  0.639- 398 1.95  23 2.06 372 2.60 384 2.69
 291  0.398  0.551  0.653-  19 2.10  26 2.12 408 2.17 368 2.80 386 3.48
 292  0.752  0.571  0.634- 399 1.92  15 2.09 365 2.61 380 2.68
 293  0.741  0.810  0.640- 400 1.98  28 2.05 379 2.59 364 2.69
 294  0.746  0.313  0.640- 401 2.00   3 2.06 370 2.62 363 2.74
 295  0.748  0.067  0.639- 402 1.80 371 2.47 383 2.48
 296  0.084  0.312  0.640- 403 1.80 381 2.49 378 2.51
 297  0.667  0.874  0.499- 431 1.97 417 2.00 325 2.74 350 2.76 322 2.81 379 3.24
 298  0.087  0.562  0.642- 404 1.80 382 2.47 373 2.54
 299  0.084  0.061  0.641- 406 1.80 377 2.49 315 2.50
 300  0.087  0.437  0.639- 404 1.79 378 2.51 381 2.53
 301  0.084  0.186  0.641- 403 1.79 315 2.50 377 2.50
 302  0.418  0.188  0.640- 397 2.00  22 2.01 376 2.63 367 2.68
 303  0.415  0.419  0.630-  37 2.03 408 2.07 375 2.54 369 2.59
 304  0.084  0.935  0.641- 406 1.80 374 2.48 366 2.50
 305  0.083  0.687  0.640- 405 1.80 382 2.45 373 2.51
 306  0.913  0.436  0.640- 457 1.80 363 2.52 381 2.53
 307  0.917  0.688  0.640- 407 1.80 382 2.45 365 2.51
 308  0.914  0.937  0.641- 387 1.80 364 2.47 366 2.50
 309  0.241  0.442  0.641- 390 1.90   8 2.11 378 2.62 369 2.92
 310  0.254  0.675  0.666-   4 2.06  45 2.11 368 3.05 373 3.16
 311  0.579  0.191  0.644- 392 1.91  25 2.13 376 2.66 371 2.71
 312  0.252  0.930  0.637- 394 1.81 374 2.47 372 2.49
 313  0.084  0.812  0.642- 405 1.79 374 2.48 366 2.53
 314  0.917  0.812  0.361- 434 1.97 341 2.79 339 2.79
 315  0.001  0.123  0.619- 299 2.50 301 2.50 258 2.50 281 2.52 202 2.88 203 2.95 238 3.18 182 3.20
                           196 3.30 242 3.31 387 3.42 409 3.43 406 3.43 403 3.45 433 3.89 430 3.90
 316  0.833  0.625  0.407-  83 2.75  64 2.79 273 2.79 126 2.79 105 2.79 269 2.79  93 2.79 138 2.79
                           139 2.79 150 2.81  53 2.88 458 3.42 446 3.42 435 3.42 434 3.42 432 3.45
 317  0.999  0.501  0.507- 198 2.62 195 2.66 218 2.68 236 2.69 243 2.70  75 2.84  74 2.85  64 2.89
                           142 2.91  84 2.91  61 2.93 164 3.01 410 3.39 413 3.39 429 3.41 421 3.42
 318  0.331  0.499  0.501- 224 2.63  81 2.70  65 2.70 204 2.70 146 2.74 155 2.76 213 2.81  80 2.81
                           168 2.82 188 2.84  58 2.85 233 3.05 408 3.35 449 3.41 419 3.42 415 3.44
 319  0.330  0.248  0.503- 184 2.64 200 2.70 193 2.72  51 2.73 225 2.73  76 2.74 154 2.77 145 2.82
                           167 2.87  68 2.88  81 2.91 232 2.99 397 3.32 418 3.36 420 3.42 448 3.44
 320  0.333  0.001  0.506- 201 2.59 246 2.67 226 2.68 191 2.71 234 2.74  76 2.78 144 2.84 152 2.84
                            78 2.85  89 2.90  56 2.92 166 2.96 416 3.34 425 3.38 418 3.40 424 3.41
 321  0.334  0.751  0.502- 205 2.70 229 2.71 147 2.74  78 2.75  69 2.75 156 2.76 223 2.77  80 2.81
                            57 2.83 169 2.84 189 2.88 215 2.93 391 3.37 398 3.40 414 3.41 424 3.42
 322  0.666  0.000  0.506- 207 2.59 230 2.63 241 2.68 222 2.72 185 2.77 297 2.81  79 2.81  52 2.84
                            92 2.85  86 2.89 148 2.90 170 2.96 426 3.37 417 3.37 423 3.39 431 3.39
 323  0.669  0.500  0.501- 228 2.61  82 2.70  54 2.71 209 2.72 150 2.76  91 2.79  88 2.79 172 2.81
                            90 2.82 219 2.87 187 2.87 244 3.02 389 3.34 458 3.41 422 3.41 432 3.42
 324  0.667  0.248  0.503- 206 2.64  79 2.72 231 2.74  55 2.75 221 2.76  71 2.79 190 2.80 149 2.81
                           216 2.83 158 2.86 171 2.88  82 2.92 426 3.41 401 3.42 428 3.43 392 3.43
 325  0.666  0.752  0.502- 208 2.65 227 2.67  73 2.72 297 2.74 220 2.75  53 2.78  90 2.81 151 2.83
                            87 2.84 245 2.84 173 2.86 186 3.01 400 3.35 431 3.38 427 3.39 454 3.46
 326  0.166  0.001  0.507- 210 2.58 192 2.67 238 2.71 226 2.73 246 2.74 181 2.76 140 2.84 183 2.86
                           152 2.88  60 2.89  89 2.92 174 2.98 425 3.37 418 3.39 433 3.39 412 3.44
 327  0.166  0.248  0.506- 211 2.61 196 2.64 237 2.68 184 2.72 225 2.73 181 2.77  51 2.85 277 2.87
                            62 2.87 141 2.89 154 2.96 175 2.98 420 3.37 418 3.39 433 3.39 421 3.46
 328  0.163  0.500  0.502- 214 2.57 195 2.68 236 2.73 142 2.75 277 2.76 278 2.78 224 2.78  61 2.79
                           213 2.84 176 2.85  65 2.86 155 2.93 390 3.33 421 3.40 419 3.42 438 3.42
 329  0.500  0.999  0.505- 249 2.57 241 2.69 222 2.72 191 2.72 234 2.77 197 2.82 271 2.83 144 2.84
                            92 2.85  86 2.86  56 2.87 178 2.95 424 3.38 416 3.39 431 3.39 426 3.40
 330  0.164  0.751  0.503- 194 2.62 235 2.68 183 2.72 212 2.75 143 2.77  59 2.81 156 2.82 278 2.84
                           177 2.89 223 2.89  69 2.90 215 2.91 391 3.34 412 3.37 413 3.43 419 3.45
 331  0.501  0.753  0.504- 287 2.67 189 2.67 271 2.68 245 2.71  73 2.75 147 2.78 229 2.79 220 2.82
                            87 2.85  57 2.90 180 2.91 272 2.94 398 3.38 431 3.38 424 3.41 427 3.42
 332  0.834  0.000  0.506- 286 2.57 239 2.65 230 2.68 182 2.72 276 2.78 185 2.78 274 2.82  66 2.85
                            52 2.88  70 2.89 148 2.93 159 2.98 417 3.36 423 3.36 430 3.41 411 3.41
 333  0.501  0.500  0.500- 188 2.61 272 2.71  88 2.71 146 2.73 244 2.75 219 2.75  91 2.77 160 2.80
                           270 2.81  58 2.83 233 2.92 247 3.27 453 3.40 428 3.43 442 3.44 427 3.45
 334  0.501  0.248  0.502- 248 2.65  71 2.72 216 2.73 193 2.73 197 2.73 221 2.74  68 2.81 145 2.81
                           270 2.81 179 2.85 158 2.85 232 2.99 397 3.37 426 3.40 428 3.42 452 3.45
 335  0.835  0.248  0.503- 284 2.65 242 2.66 153 2.71 276 2.77  85 2.79 275 2.79  55 2.80  67 2.81
                           231 2.84 157 2.89 190 2.89 149 2.94 401 3.34 430 3.37 429 3.43 422 3.45
 336  1.000  0.751  0.507- 199 2.57 240 2.72 217 2.72 194 2.72 235 2.74  75 2.77  77 2.78  63 2.87
                           143 2.88  83 2.94  59 2.94 165 2.99 413 3.38 410 3.39 412 3.40 411 3.40
 337  0.001  0.250  0.506- 203 2.58 196 2.67 242 2.68 153 2.75 237 2.76  74 2.77  72 2.79 141 2.87
                            62 2.89  67 2.89  85 2.92 163 2.97 421 3.39 429 3.40 433 3.40 430 3.41
 338  1.000  1.000  0.506- 202 2.59 192 2.68 239 2.70 182 2.70 238 2.70  77 2.79  72 2.80 140 2.88
                            66 2.89  70 2.90  60 2.91 162 2.98 411 3.40 430 3.40 412 3.41 433 3.41
 339  0.833  0.875  0.407- 274 2.75  70 2.78 151 2.79 125 2.79 104 2.79 314 2.79 101 2.79 139 2.79
                           159 2.79  63 2.80  52 2.84 446 3.42 434 3.42 444 3.42 455 3.42 417 3.48
 340  0.000  0.625  0.407-  75 2.72 269 2.79  93 2.79 114 2.79 136 2.79 164 2.79 165 2.79  59 2.79
                            83 2.80  64 2.80 142 2.80 435 3.42 434 3.42 438 3.42 439 3.42 413 3.53
 341  0.000  0.875  0.407-  77 2.78  70 2.78  60 2.79 314 2.79 133 2.79 101 2.79 135 2.79 165 2.79
                           162 2.79  63 2.81 143 2.81 434 3.42 439 3.42 455 3.42 436 3.42 412 3.58
 342  0.333  0.125  0.407-  76 2.74 132 2.79 134 2.79 124 2.79 103 2.79 166 2.79 167 2.79  68 2.79
                           152 2.80  51 2.82 144 2.83 440 3.42 441 3.42 447 3.42 448 3.42 416 3.47
 343  0.333  0.375  0.407- 154 2.74  58 2.77 110 2.79 131 2.79 111 2.79 123 2.79 167 2.79 168 2.79
                            65 2.81 145 2.84  81 2.88 441 3.42 442 3.42 448 3.42 449 3.42 415 3.43
 344  0.333  0.625  0.407- 155 2.74  57 2.78  69 2.79 130 2.79 109 2.79 122 2.79 102 2.79 168 2.79
                           169 2.79 146 2.88  80 2.92 442 3.42 443 3.42 449 3.42 450 3.42 414 3.44
 345  0.333  0.875  0.407-  78 2.75  89 2.78 129 2.79 121 2.79 108 2.79 100 2.79 169 2.79 166 2.79
                            56 2.79 156 2.83 147 2.85 443 3.42 450 3.42 440 3.42 447 3.42 425 3.49
 346  0.667  0.125  0.407- 148 2.76  79 2.76 128 2.79 107 2.79 120 2.79  99 2.79 170 2.79 171 2.79
                            92 2.82  71 2.84  55 2.85 444 3.42 445 3.42 451 3.42 452 3.42 426 3.53
 347  0.667  0.375  0.407- 149 2.75 158 2.76 106 2.79 127 2.79  98 2.79 119 2.79 171 2.79 172 2.79
                            54 2.83  88 2.85  82 2.89 445 3.42 458 3.42 453 3.42 452 3.42 428 3.46
 348  0.667  0.625  0.407- 150 2.74 126 2.79 105 2.79 118 2.79  97 2.79 172 2.79 173 2.79  91 2.79
                            87 2.80  53 2.84  90 2.88 458 3.42 446 3.42 453 3.42 454 3.42 427 3.43
 349  0.836  0.500  0.503- 285 2.59 243 2.67 218 2.71 273 2.75 228 2.78  64 2.78  84 2.78 187 2.82
                           275 2.83  54 2.85 138 2.88 150 2.93 399 3.35 422 3.41 432 3.41 429 3.42
 350  0.667  0.875  0.407- 297 2.76 151 2.77 125 2.79 104 2.79 117 2.79  96 2.79 173 2.79 170 2.79
                            86 2.79  52 2.82  73 2.84 446 3.42 454 3.42 444 3.42 451 3.42 417 3.50
 351  0.167  0.375  0.407- 277 2.73  61 2.78 111 2.79 137 2.79 123 2.79 113 2.79 176 2.79 175 2.79
                           141 2.79 154 2.82  65 2.85 448 3.42 449 3.42 437 3.42 438 3.42 420 3.44
 352  0.167  0.625  0.407-  59 2.76 142 2.79 278 2.79 122 2.79 102 2.79 114 2.79 136 2.79 176 2.79
                           177 2.79 155 2.80  69 2.87 449 3.42 450 3.42 438 3.42 439 3.42 419 3.46
 353  0.167  0.875  0.407-  60 2.77  89 2.78 183 2.79 121 2.79 133 2.79 100 2.79 135 2.79 177 2.79
                           174 2.79 143 2.80 156 2.84 450 3.42 439 3.42 447 3.42 436 3.42 425 3.46
 354  0.500  0.125  0.407-  68 2.78 197 2.78 120 2.79  99 2.79 132 2.79 134 2.79 178 2.79 179 2.79
                            92 2.80  71 2.82 144 2.83 451 3.42 452 3.42 440 3.42 441 3.42 416 3.50
 355  0.500  0.375  0.407-  58 2.77 270 2.79  98 2.79 119 2.79 110 2.79 131 2.79 179 2.79 160 2.79
                           158 2.80  88 2.83 145 2.88 452 3.42 453 3.42 441 3.42 442 3.42 415 3.44
 356  0.500  0.625  0.407-  57 2.77  87 2.78 118 2.79  97 2.79 130 2.79 109 2.79 160 2.79 180 2.79
                           272 2.79  91 2.84 146 2.90 453 3.42 454 3.42 442 3.42 443 3.42 414 3.44
 357  0.500  0.875  0.407-  56 2.76  86 2.77 117 2.79 129 2.79  96 2.79 108 2.79 180 2.79 178 2.79
                           271 2.82 147 2.85  73 2.85 454 3.42 443 3.42 451 3.42 440 3.42 424 3.51
 358  0.833  0.125  0.407-  85 2.76 148 2.78 276 2.78 128 2.79 107 2.79 116 2.79  95 2.79 159 2.79
                           157 2.79  66 2.79  55 2.84 444 3.42 445 3.42 455 3.42 456 3.42 423 3.53
 359  0.833  0.375  0.407- 275 2.77  84 2.78 106 2.79 127 2.79  94 2.79 115 2.79 157 2.79 138 2.79
                            67 2.79 149 2.83  54 2.84 445 3.42 458 3.42 456 3.42 435 3.42 422 3.45
 360  0.167  0.125  0.407-  62 2.76 181 2.77 124 2.79 103 2.79 112 2.79 161 2.79 174 2.79 175 2.79
                           140 2.80 152 2.81  51 2.81 447 3.42 448 3.42 436 3.42 437 3.42 418 3.57
 361  0.000  0.375  0.407-  74 2.74  61 2.77  94 2.79 115 2.79 137 2.79 113 2.79 163 2.79 164 2.79
                            84 2.80 141 2.80  67 2.80 435 3.42 456 3.42 438 3.42 437 3.42 429 3.54
 362  0.836  0.752  0.503- 240 2.63 217 2.68 283 2.71 274 2.74 227 2.75  63 2.75  83 2.80  53 2.84
                           139 2.87 273 2.87 151 2.87 186 2.97 400 3.31 411 3.37 410 3.43 434 3.45
 363  0.837  0.373  0.604- 306 2.52 260 2.52 254 2.60 294 2.74 284 2.81 153 2.87 187 2.93 243 2.94
                           285 2.96 231 3.03 275 3.15 409 3.39 401 3.42 457 3.44 399 3.48 429 3.53
 364  0.832  0.876  0.618- 308 2.47 251 2.49 261 2.50 293 2.69 283 2.89 286 2.92 185 3.16 217 3.22
                           239 3.25 227 3.30 387 3.44 400 3.44 402 3.45 407 3.47 411 3.90 366 3.95
 365  0.841  0.627  0.603- 307 2.51 259 2.54 292 2.61 285 2.78 283 2.79 240 2.82 186 2.85 218 2.85
                           250 3.02 273 3.10 228 3.23 407 3.33 457 3.37 399 3.42 410 3.44 400 3.53
 366  0.999  0.875  0.622- 304 2.50 308 2.50 261 2.51 313 2.53 199 2.84 202 2.89 217 3.29 235 3.32
                           239 3.33 192 3.36 407 3.40 405 3.42 406 3.45 387 3.45 364 3.95 411 3.95
 367  0.332  0.120  0.613- 268 2.49 288 2.51 252 2.52 302 2.68 201 2.75 226 3.03 200 3.07 234 3.07
                           184 3.13 193 3.25 394 3.36 396 3.36 395 3.43  76 3.45 397 3.55 418 3.75
 368  0.334  0.624  0.596- 265 2.54 205 2.59 256 2.64 233 2.71  80 2.74 215 2.74 291 2.80 204 2.84
                           224 2.88 189 2.94 310 3.05 408 3.36 398 3.41 414 3.45 419 3.46 391 3.51
 369  0.326  0.374  0.593- 303 2.59 213 2.65 267 2.65 225 2.65 200 2.67  81 2.70 232 2.73 204 2.75
                           309 2.92 188 3.12 420 3.29  37 3.39 289 3.40 395 3.40 390 3.42 408 3.42
 370  0.671  0.372  0.594- 294 2.62 231 2.66 263 2.67 209 2.72  82 2.73 187 2.73 206 2.79 254 2.82
                           221 2.87 244 2.94 279 3.02 422 3.35 401 3.39 428 3.44 389 3.44 392 3.46
 371  0.665  0.124  0.612- 295 2.47 262 2.51 253 2.68 311 2.71 206 2.81 207 2.83 190 2.99 216 3.07
                           222 3.08 230 3.16 392 3.37  79 3.38 393 3.39 402 3.40 401 3.51 426 3.76
 372  0.334  0.879  0.603- 312 2.49 255 2.58 290 2.60 201 2.72 266 2.82 223 2.87 191 2.88 229 2.91
                           246 2.92  78 3.12 205 3.12 394 3.33 396 3.34 391 3.47 398 3.48 424 3.55
 373  0.159  0.627  0.602- 305 2.51 298 2.54 265 2.55 212 2.76 194 2.78 214 2.80 236 2.83 215 2.89
                           278 3.06 310 3.16 224 3.20 405 3.33 404 3.37 413 3.42 390 3.50 391 3.54
 374  0.166  0.873  0.618- 312 2.47 313 2.48 304 2.48 212 2.84 210 2.91 266 2.93 235 3.17 223 3.19
                           192 3.28 246 3.31 391 3.42 405 3.43 394 3.44 406 3.44 412 3.89 366 3.96
 375  0.502  0.371  0.595- 263 2.53 303 2.54 244 2.63 248 2.64 232 2.66 221 2.77 279 2.85 270 2.85
                           188 2.88 289 2.91 247 3.01 392 3.39 428 3.40 397 3.42 415 3.48 408 3.54
 376  0.500  0.122  0.606- 262 2.52 288 2.54 302 2.63 311 2.66 249 2.76 216 2.93 234 2.94 222 2.94
                           248 2.96 193 3.10 197 3.19 393 3.33 396 3.36 392 3.44 397 3.51 426 3.63
 377  0.167  0.123  0.622- 299 2.49 301 2.50 268 2.50 252 2.55 210 2.91 211 2.95 226 3.27 238 3.28
                           184 3.33 196 3.36 395 3.40 394 3.44 406 3.46 403 3.48 367 3.89 315 3.95
 378  0.163  0.371  0.608- 296 2.51 300 2.51 267 2.60 309 2.62 211 2.76 237 2.88 214 3.00 213 3.04
                           225 3.04 195 3.06 277 3.29 403 3.34 390 3.42 395 3.47 404 3.47 421 3.60
 379  0.665  0.881  0.607- 282 2.51 251 2.53 293 2.59 257 2.64 207 2.71 185 2.92 220 2.93 241 2.96
                           227 3.14 208 3.14 297 3.24 393 3.32 402 3.36 388 3.49 400 3.56 431 3.60
 380  0.666  0.627  0.593- 208 2.58 264 2.64 186 2.65 292 2.68  90 2.72 280 2.78 245 2.81 219 2.82
                           228 2.85 209 2.97 250 3.20 389 3.33 388 3.38 427 3.40 432 3.41  15 3.42
 381  0.000  0.375  0.622- 296 2.49 260 2.51 300 2.53 306 2.53 198 2.89 203 2.94 153 3.34 195 3.35
                           243 3.35 237 3.35 404 3.44 457 3.44 409 3.45 403 3.50 378 3.89 363 3.90
 382  1.000  0.622  0.643- 305 2.45 307 2.45 259 2.46 298 2.47 198 3.11 199 3.31 457 3.53 404 3.54
                           405 3.65 407 3.67 365 3.96 373 3.96 317 4.90 336 5.00
 383  0.834  0.125  0.620- 295 2.48 258 2.49 281 2.49 253 2.73 286 2.86 284 2.87 190 3.17 182 3.25
                           242 3.30 230 3.36 402 3.42 401 3.43 387 3.44 409 3.47 430 3.93 315 3.95
 384  0.500  0.877  0.609- 282 2.50 255 2.53 290 2.69 287 2.73 257 2.80 249 2.81 220 3.02 241 3.07
                           191 3.07 229 3.11 271 3.25 393 3.39 396 3.39 388 3.46 398 3.49 431 3.68
 385  0.000  0.125  0.407-  72 2.74  62 2.78 116 2.79  95 2.79 112 2.79 161 2.79 162 2.79 163 2.79
                            85 2.79  66 2.81 140 2.81 455 3.42 456 3.42 436 3.42 437 3.42 430 3.57
 386  0.504  0.625  0.594- 256 2.56 280 2.62 233 2.65 245 2.66 219 2.69 247 2.73 189 2.76 272 2.82
                           264 2.83 287 2.93 427 3.37 388 3.39 389 3.45 414 3.47  48 3.47 398 3.48
 387  0.916  1.000  0.604- 258 1.80 308 1.80 202 2.00 286 2.02 239 2.20 182 2.20 315 3.42 383 3.44
                           364 3.44 366 3.45 332 3.51 338 3.53
 388  0.584  0.750  0.599- 280 1.87 257 1.94 208 1.95 287 1.99 220 2.06 245 2.12 380 3.38 386 3.39
                           384 3.46 331 3.48 325 3.49 379 3.49
 389  0.591  0.501  0.594- 209 1.81 219 1.89 244 1.94 264 1.99 279 2.11 247 2.25  11 3.13 380 3.33
                           323 3.34 370 3.44 386 3.45 333 3.51 375 3.58
 390  0.242  0.498  0.594- 214 1.83 309 1.90 213 1.94 265 1.99 224 2.03 204 2.16 328 3.33 369 3.42
                           378 3.42 318 3.49 373 3.50 368 3.55
 391  0.249  0.753  0.592- 223 1.82 212 1.87 266 1.95 215 1.96 205 2.06 330 3.34 321 3.37 374 3.42
                           372 3.47 368 3.51 373 3.54
 392  0.584  0.247  0.597- 206 1.88 311 1.91 263 1.97 216 1.98 248 2.04 221 2.10 371 3.37 375 3.39
                           324 3.43 376 3.44 334 3.46 370 3.46
 393  0.583  0.001  0.604- 262 1.79 282 1.80 249 2.00 207 2.01 222 2.21 241 2.25 379 3.32 376 3.33
                           371 3.39 384 3.39 329 3.55 322 3.56
 394  0.249  0.998  0.604- 268 1.79 312 1.81 210 1.97 201 2.04 246 2.22 226 2.24 372 3.33 367 3.36
                           374 3.44 377 3.44 326 3.53 320 3.56
 395  0.249  0.246  0.604- 252 1.74 211 1.94 267 1.94 200 2.06 184 2.12 225 2.30 377 3.40 369 3.40
                           367 3.43 378 3.47 327 3.52 319 3.58
 396  0.417  0.000  0.605- 255 1.79 288 1.80 249 2.00 201 2.00 234 2.25 191 2.26 372 3.34 376 3.36
                           367 3.36 384 3.39 329 3.57 320 3.57
 397  0.415  0.249  0.591- 193 1.85 200 1.90 232 1.96 248 1.99 302 2.00 289 2.31 319 3.32 334 3.37
                           375 3.42 369 3.49 376 3.51 367 3.55
 398  0.416  0.750  0.594- 205 1.93 229 1.95 290 1.95 189 1.99 287 2.01 256 2.03 331 3.38 321 3.40
                           368 3.41 386 3.48 372 3.48 384 3.49
 399  0.757  0.503  0.596- 285 1.83 292 1.92 228 1.97 254 1.98 187 2.05 209 2.13 349 3.35 365 3.42
                           363 3.48 380 3.50 323 3.53 370 3.55
 400  0.752  0.753  0.591- 227 1.83 283 1.86 186 1.96 293 1.98 208 2.05 250 2.40  28 3.14 362 3.31
                           325 3.35 364 3.44 380 3.47 365 3.53 379 3.56
 401  0.754  0.248  0.594- 284 1.84 190 1.95 231 1.98 253 1.99 294 2.00 206 2.14   3 3.05 335 3.34
                           370 3.39 363 3.42 324 3.42 383 3.43 371 3.51
 402  0.750  0.002  0.604- 295 1.80 251 1.80 286 1.99 207 2.02 230 2.21 185 2.27 379 3.36 371 3.40
                           383 3.42 364 3.45 332 3.55 322 3.56
 403  0.083  0.248  0.604- 301 1.79 296 1.80 203 1.99 211 2.04 196 2.19 237 2.24 378 3.34 315 3.45
                           377 3.48 381 3.50 327 3.52 337 3.53
 404  0.081  0.500  0.603- 300 1.79 298 1.80 198 1.95 214 2.05 236 2.23 195 2.23 373 3.37 381 3.44
                           378 3.47 317 3.47 382 3.54 328 3.61
 405  0.080  0.751  0.603- 313 1.79 305 1.80 199 1.94 212 2.15 235 2.18 194 2.22 373 3.33 366 3.42
                           374 3.43 336 3.47 330 3.60 382 3.65
 406  0.083  0.998  0.604- 304 1.80 299 1.80 202 2.00 210 2.02 192 2.18 238 2.22 315 3.43 374 3.44
                           366 3.45 377 3.46 326 3.51 338 3.52
 407  0.918  0.751  0.603- 261 1.79 307 1.80 199 1.96 283 2.10 217 2.18 240 2.23 365 3.33 366 3.40
                           364 3.47 336 3.48 362 3.59 382 3.67
 408  0.411  0.497  0.593- 204 1.85 188 1.88 233 1.89 303 2.07 247 2.10 291 2.17 318 3.35 368 3.36
                           369 3.42 333 3.51 375 3.54 386 3.59
 409  0.920  0.249  0.603- 281 1.79 260 1.80 203 1.95 284 2.12 242 2.18 153 2.21 363 3.39 315 3.43
                           381 3.45 383 3.47 337 3.48 335 3.59
 410  0.918  0.626  0.506- 218 1.84 240 1.84  75 1.94 273 2.05  83 2.10  64 2.11 317 3.39 336 3.39
                           349 3.42 362 3.43 365 3.44 340 3.55 316 3.59
 411  0.917  0.875  0.507- 239 1.84 217 1.84  77 1.97 274 2.01  70 2.11  63 2.12 362 3.37 336 3.40
                           338 3.40 332 3.41 341 3.58 339 3.59 364 3.90 366 3.95
 412  0.083  0.875  0.507- 192 1.84 235 1.84  77 1.97 183 2.03  60 2.11 143 2.11 330 3.37 336 3.40
                           338 3.41 326 3.44 341 3.58 353 3.59 374 3.89 366 3.98
 413  0.081  0.626  0.506- 236 1.84 194 1.85  75 1.93 278 2.07  59 2.09 142 2.11 336 3.38 317 3.39
                           373 3.42 328 3.43 330 3.43 340 3.53 352 3.60
 414  0.417  0.626  0.501-  57 1.91  80 1.92 189 1.95 146 1.97 272 1.98 233 2.13 321 3.41 356 3.44
                           344 3.44 368 3.45 333 3.46 331 3.46 386 3.47 318 3.48
 415  0.416  0.374  0.501- 145 1.91  81 1.94  58 1.96 270 1.97 232 1.98 188 2.06 343 3.43 318 3.44
                           355 3.44 333 3.45 334 3.47 319 3.48 375 3.48 369 3.49
 416  0.416  0.122  0.503- 234 1.84  76 1.95 144 1.96 197 1.98 193 2.03  68 2.07 320 3.34 329 3.39
                           334 3.46 319 3.47 342 3.47 354 3.50 376 3.69 367 3.87
 417  0.751  0.879  0.503- 185 1.82 274 1.95  52 1.95 297 2.00 227 2.03 151 2.09 332 3.36 322 3.37
                           325 3.48 362 3.48 339 3.48 350 3.50 379 3.72 364 3.95
 418  0.249  0.124  0.507- 226 1.84 184 1.87 181 1.96  76 2.01 152 2.11  51 2.13 319 3.36 326 3.39
                           327 3.39 320 3.40 360 3.57 342 3.60 367 3.75 377 3.95
 419  0.248  0.624  0.503- 278 1.89 224 1.91 215 1.97  69 1.99 155 1.99  80 2.09 328 3.42 318 3.42
                           330 3.45 352 3.46 368 3.46 321 3.48 344 3.52 373 3.64
 420  0.247  0.373  0.503- 225 1.85 277 1.90 154 1.97 213 1.98  65 2.06  81 2.08 369 3.29 327 3.37
                           319 3.42 351 3.44 328 3.45 318 3.46 343 3.53 378 3.71
 421  0.082  0.375  0.506- 237 1.84 195 1.84  74 1.95 277 2.02 141 2.10  61 2.11 337 3.39 328 3.40
                           317 3.42 327 3.46 361 3.55 351 3.59 378 3.60 381 3.99
 422  0.753  0.376  0.503- 275 1.90 187 1.93 231 1.98  54 1.99 149 1.99  82 2.06 370 3.35 349 3.41
                           323 3.41 359 3.45 335 3.45 324 3.50 347 3.52 363 3.65
 423  0.751  0.122  0.505- 230 1.84 190 1.94 276 1.95  79 2.01 148 2.02  55 2.11 332 3.36 322 3.39
                           324 3.43 335 3.46 358 3.53 346 3.55 371 3.79 383 3.96
 424  0.416  0.877  0.504- 191 1.84 229 1.97  78 1.97 271 1.98  56 1.99 147 2.09 329 3.38 320 3.41
                           331 3.41 321 3.42 345 3.51 357 3.51 372 3.55 384 3.73
 425  0.249  0.879  0.502- 246 1.83 183 1.93  89 1.94  78 2.00 156 2.07 223 2.07 326 3.37 320 3.38
                           353 3.46 330 3.48 321 3.49 345 3.49 372 3.62 374 4.00
 426  0.583  0.123  0.505- 222 1.85 216 1.94  79 1.96 197 1.99  92 2.02  71 2.09 322 3.37 329 3.40
                           334 3.40 324 3.41 346 3.53 354 3.53 376 3.63 371 3.76
 427  0.584  0.627  0.501-  87 1.91 245 1.92  90 1.93 272 1.98  91 1.99 219 2.09 386 3.37 325 3.39
                           380 3.40 331 3.42 348 3.43 356 3.44 333 3.45 323 3.48
 428  0.584  0.373  0.502- 221 1.90  82 1.94 158 1.95 270 2.00  88 2.01 244 2.05 375 3.40 334 3.42
                           324 3.43 333 3.43 370 3.44 323 3.46 347 3.46 355 3.47
 429  0.918  0.374  0.506- 153 1.84 243 1.85  74 1.94 275 2.04  67 2.09  84 2.10 337 3.40 317 3.41
                           349 3.42 335 3.43 363 3.53 361 3.54 359 3.59 381 3.99
 430  0.918  0.125  0.507- 182 1.84 242 1.84  72 1.97 276 2.01  66 2.11  85 2.12 335 3.37 338 3.40
                           332 3.41 337 3.41 385 3.57 358 3.59 315 3.90 383 3.93
 431  0.584  0.876  0.506- 241 1.84 220 1.92 297 1.97 271 1.99  86 2.05  73 2.10 325 3.38 331 3.38
                           322 3.39 329 3.39 350 3.55 357 3.56 379 3.60 384 3.68
 432  0.752  0.624  0.503- 273 1.89 228 1.96 186 1.96  53 1.97 150 1.99  90 2.06 380 3.41 349 3.41
                           323 3.42 316 3.45 362 3.46 325 3.51 348 3.51 365 3.67
[...]
  273            m_sumb_d                              0.407270                       42   5
  274          m_sumb_d                              0.000540                          7   4
  275        setdij_                               5.357207                          140   3
  276          m_sumb_d                              1.384683                        140   4
  277        set_dd_magatom                        0.000022                            7   3
  278        set_dd_paw                            0.085540                            7   3
  279          set_rsgf_all                          0.000013                          7   4
  280          m_sumb_d                              0.083758                         49   4
  281        strkin                                0.043054                            7   3
  282          m_sumb_d                              0.005978                          7   4
  283        strelo                                0.040187                            7   3
  284          m_sumb_d                              0.003337                         14   4
  285        strnlr                               48.091041                            7   3
  286          rspher_all                            2.236032                         63   4
  287          phaser                                0.000032                         63   4
  288          rpro_isp                             45.235729                         63   4
  289            fftwav_mpi                           34.266251                     8820   5
  290              fft3d_mpi                            30.703942                   8820   6
  291                fftbrc_mpi                           26.227080                 8820   7
  292                  fftbas_plan_mpi                      26.200032               8820   8
  293                    dfftw_execute                        13.319627            26460   9
  294                    map_forward                           7.487345            17640   9
  295                      map_gather                            0.765084           8820  10
  296                      m_alltoallv_z                         2.696694           8820  10
  297                      map_scatter                           1.631230           8820  10
  298            rpromu                               10.899706                     2205   5
  299              rpromu_gemm                           3.436914                 500535   6
  300              m_sumb_d                              1.105233                   8820   6
  301          m_sumb_d                              0.472383                          7   4
  302        m_sumb_d                              0.037047                           49   3
  303        fft3d_mpi                             5.746671                          497   3
  304          fftbrc_mpi                            5.619945                        497   4
  305            fftbas_plan_mpi                       5.617970                      497   5
  306              dfftw_execute                         0.622337                   1491   6
  307              map_forward                           1.950868                    490   6
  308                map_gather                            0.030951                  245   7
  309                m_alltoallv_z                         1.765659                  245   7
  310                map_scatter                           0.149719                  245   7
  311              map_backward                          2.695168                    504   6
  312                map_gather                            0.123660                  252   7
  313                m_alltoallv_z                         2.499066                  252   7
  314                map_scatter                           0.067333                  252   7
  315        ggaall_grid                           1.339538                            7   3
  316        forhar                                2.910728                            7   3
  317          m_sumb_d                              0.084395                          7   4
  318        strehar                               0.041864                            7   3
  319          m_sumb_d                              0.002237                          7   4
  320        m_bcast_d                             0.005547                           14   3
  321      potlok                               78.979282                             13   2
  322        fft3d_mpi                            33.067657                         2741   3
  323          fftbrc_mpi                           32.370444                       2741   4
  324            fftbas_plan_mpi                      32.360575                     2741   5
  325              dfftw_execute                         3.527224                   8223   6
  326              map_forward                          14.604947                   2754   6
  327                map_gather                            0.186742                 1390   7
  328                m_alltoallv_z                        13.546520                 1390   7
  329                map_scatter                           0.844832                 1390   7
  330              map_backward                         12.254883                   2728   6
  331                map_gather                            0.677923                 1364   7
  332                m_alltoallv_z                        11.179794                 1364   7
  333                map_scatter                           0.369733                 1364   7
  334        ggaall_grid                          19.190017                          237   3
  335        m_sumb_d                              1.128806                         1224   3
  336        fewald                                0.018913                           26   3
  337          rsp                                   0.017443                         26   4
  338          rcp                                   0.001246                         26   4
  339        pothar                                0.024588                           13   3
  340          m_sumb_d                              0.018008                         13   4
  341        m_bcast_d                             0.048053                           13   3
  342      potlok_metagga                        0.000014                             13   2
  343      set_dd_magatom                        0.000006                              7   2
  344      set_dd_paw                            0.159600                             13   2
  345        set_rsgf_all                          0.000030                           13   3
  346        m_sumb_d                              0.156223                           91   3
  347      m_sumb_d                             55.305417                           3518   2
  348      wavpre_noio                           1.652193                              6   2
  349        stufak                                1.569854                            6   3
  350      eddiag                              135.084488                              6   2
  351        overl                                 0.008075                            6   3
  352        redis_proj                            0.784394                           18   3
  353          m_alltoall_d                          0.777314                       2520   4
  354        fftwav_mpi                            3.620234                          840   3
  355          fft3d_mpi                             3.271574                        840   4
  356            fftbrc_mpi                            2.820629                      840   5
  357              fftbas_plan_mpi                       2.818103                    840   6
  358                dfftw_execute                         1.278013                 2520   7
  359                map_forward                           1.041866                 1680   7
  360                  map_gather                            0.077755                840   8
  361                  m_alltoallv_z                         0.568323                840   8
  362                  map_scatter                           0.155215                840   8
  363        hamilt_local                          2.958846                          840   3
  364          vhamil                                0.394433                        840   4
  365          kinhamil                              2.557676                        840   4
  366            fftext_mpi                            2.528808                      840   5
  367              fft3d_mpi                             2.470080                    840   6
  368                fftbrc_mpi                            2.078915                  840   7
  369                  fftbas_plan_mpi                       2.076030                840   8
  370                    dfftw_execute                         1.091512             2520   9
  371                    map_backward                          0.499070             1680   9
  372                      map_gather                            0.129098            840  10
  373                      m_alltoallv_z                         0.238012            840  10
  374                      map_scatter                           0.117408            840  10
  375        redis_pw                              2.277195                          846   3
  376          m_alltoall_d                          2.217813                       2520   4
  377        orth1                                 1.715442                          420   3
  378        m_sumb_d                              1.300101                            6   3
  379        shift_bands_between_low_high          0.000009                            6   3
  380        lincom                                1.797899                            6   3
 
 Flat profile
 ============
 
             routine name                   CPU           calls
 ---------------------------------------------------------------
 edwav                                3297.126691         310
 potlok                                577.478503         323
 total_time                            489.091143           1
 m_alltoall_d                          352.123972      753620
 m_sumb_d                              293.182372      322207
 dfftw_execute                         268.081640      565440
 m_alltoallv_z                         254.542975      189120
 lincom                                244.473369         950
 eddiag                                230.405529         168
 orth1                                 153.766019       44800
 fftbas_plan_mpi                       119.174896      188480
 choleski                              109.816756         317
 fft3d_mpi                              87.182678      188480
 ggaall_grid                            79.888884         554
 fftwav_mpi                             47.185402      116749
 eccp                                   42.121528       86800
 map_scatter                            39.310976      189120
 map_forward                            32.705262      259700
 racc0                                  32.689474       21700
 rpro1                                  31.143880       21700
 map_gather                             25.194509      189120
 pw_charge                              16.365428       37089
 setdij_                                14.655882         506
 force_and_stress                       12.659248           7
 vhamil                                 11.174268       23520
 m_bcast_z                              10.898727        2381
 augmentation_charge                    10.129776         317
 rpromu                                  9.178583        3185
 w1_dscal                                7.015555       21700
 redis_pw                                5.058637       89422
 rpromu_gemm                             4.951556      722995
 rspher_all                              3.225050          92
 fftext_mpi                              3.159266       45220
 orthch                                  3.021868         317
 forloc                                  2.827644           7
 forhar                                  2.826333           7
 redis_proj                              2.253232       68570
 stufak                                  1.833709           7
 overl                                   1.377216       22340
 m_bcast_d                               1.321812         353
 elmin_all                               1.311515           7
 map_backward                            0.991790      117260
 kinhamil                                0.797691       23520
 soft_charge                             0.717458         317
 densta                                  0.602798         318
 fftbrc_mpi                              0.599092      188480
 rsp                                     0.491805         653
 depsum                                  0.356735         317
 hamilt_local                            0.197236       23520
 pothar                                  0.161164         323
 strnlr                                  0.146865           7
 rpro_isp                                0.134053          91
 set_dd_paw                              0.108452         330
 wavpre_noio                             0.082339           6
 set_charge                              0.075908         317
 fewald                                  0.061223         653
 fft_gq                                  0.053332         317
 fornlr                                  0.040178           7
 strehar                                 0.039627           7
 rcp                                     0.037389         653
 strkin                                  0.037076           7
 strelo                                  0.036851           7
 redis_pw_all                            0.002151         310
 fordep                                  0.001507           7
 redis_pw_over_bands                     0.001329         323
 brgrid                                  0.000787           1
 set_rsgf_all                            0.000784         330
 potlok_metagga                          0.000380         323
 crpa_reader                             0.000290           1
 phaser                                  0.000166         246
 proall                                  0.000159           7
 rotate_active_occupied_orbital          0.000060           7
 vectorpot                               0.000031           1
 set_dd_magatom                          0.000029          14
 shift_bands_between_low_high            0.000016          13
 ---------------------------------------------------------------
  summed up times    6937.70851373672     
 
 Accumulative profile
 ====================
 
             routine name                   CPU           calls
 ---------------------------------------------------------------
 total_time                           6935.550542           1
 elmin_all                            6046.386851           7
 edwav                                4771.094195         310
 potlok                                930.279180         323
 fft3d_mpi                             825.625847      188480
 fftbrc_mpi                            738.443170      188480
 fftbas_plan_mpi                       737.844077      188480
 fftwav_mpi                            460.500523      116749
 orthch                                377.660831         317
 eddiag                                357.960807         168
 m_alltoall_d                          352.123972      753620
 m_sumb_d                              293.182372      322207
 dfftw_execute                         268.081640      565440
 m_alltoallv_z                         254.542975      189120
 lincom                                244.473369         950
 map_forward                           219.411481      259700
 redis_proj                            193.091962       68570
 set_charge                            183.681460         317
 soft_charge                           168.435897         317
 redis_pw                              166.343879       89422
 orth1                                 153.766019       44800
 fftext_mpi                            136.471639       45220
 map_backward                          133.334032      117260
 choleski                              109.816756         317
 force_and_stress                       96.927462           7
 hamilt_local                           83.008202       23520
 ggaall_grid                            79.888884         554
 kinhamil                               71.636699       23520
 rpro_isp                               65.436934          91
 strnlr                                 48.091041           7
 eccp                                   47.341235       86800
 racc0                                  46.712442       21700
 map_scatter                            39.310976      189120
 rpro1                                  35.313284       21700
 redis_pw_over_bands                    26.371053         323
 redis_pw_all                           26.369724         310
 map_gather                             25.194509      189120
 setdij_                                20.135815         506
 pw_charge                              16.365428       37089
 fornlr                                 16.084928           7
 rpromu                                 15.758732        3185
 augmentation_charge                    14.541903         317
 vhamil                                 11.174268       23520
 m_bcast_z                              10.898727        2381
 w1_dscal                                7.015555       21700
 proall                                  5.074214           7
 rpromu_gemm                             4.951556      722995
 set_dd_paw                              4.181901         330
 rspher_all                              3.225050          92
 densta                                  2.969772         318
 forhar                                  2.910728           7
 forloc                                  2.887425           7
 pothar                                  1.859099         323
 fft_gq                                  1.840730         317
 stufak                                  1.833709           7
 wavpre_noio                             1.652193           6
 fordep                                  1.597414           7
 overl                                   1.377216       22340
 m_bcast_d                               1.321812         353
 fewald                                  0.839423         653
 depsum                                  0.627753         317
 rsp                                     0.491805         653
 strkin                                  0.043054           7
 strehar                                 0.041864           7
 strelo                                  0.040187           7
 rcp                                     0.037389         653
 brgrid                                  0.000787           1
 set_rsgf_all                            0.000784         330
 potlok_metagga                          0.000380         323
 crpa_reader                             0.000290           1
 phaser                                  0.000166         246
 rotate_active_occupied_orbital          0.000060           7
 vectorpot                               0.000031           1
 set_dd_magatom                          0.000029          14
 shift_bands_between_low_high            0.000016          13
 ---------------------------------------------------------------
 
Profiling took   4.932201  1.664566  0.006973  0.006374 seconds
Profiling took   5.561377 seconds
