 vasp.6.3.2 27Jun22 (build Jan 03 2024 23:25:20) gamma-only                     
  
 executed on           IFC15_impi date 2024.02.27  03:35:21
 running   64 mpi-ranks, with    1 threads/rank
 distrk:  each k-point on   64 cores,    1 groups
 distr:  one band on NCORE=   4 cores,   16 groups


--------------------------------------------------------------------------------------------------------


 INCAR:
   ENCUT = 500.000000
   SIGMA = 0.010000
   EDIFF = 1.00e-05
   ALGO = A
   ISMEAR = 0
   NELM = 200
   NSW = 500
   NCORE = 4
   LCHARG = .TRUE.
   LWAVE = .TRUE.
   LREAL = Auto
   IBRION = 2
   EDIFFG = -0.05
   GGA = BF
   LUSE_VDW = .TRUE.
   ZAB_VDW = -1.8867
   LBEEFENS = .TRUE.

 POTCAR:    PAW_PBE C 08Apr2002                   
 POTCAR:    PAW_PBE H 15Jun2001                   
 -----------------------------------------------------------------------------
|                                                                             |
|               ----> ADVICE to this user running VASP <----                  |
|                                                                             |
|     You have switched on vdW-DFT.                                           |
|     This routine was written and supplied by Jiri Klimes. We recommend      |
|     that you carefully read and cite the following publications:            |
|       J. Klimes, D.R. Bowler, A. Michelides                                 |
|          J. Phys.: Cond Matt. 22 022201 (2010)                              |
|       J. Klimes, D.R. Bowler, A. Michelides                                 |
|          Phys. Rev. B. 83, 195131 (2011)                                    |
|     and references therein.                                                 |
|                                                                             |
 -----------------------------------------------------------------------------

 POTCAR:    PAW_PBE C 08Apr2002                   
   SHA256 =  253f7b50bb8d59471dbedb8285d89021f4a42ed1a2c5d38a03a736e69125dd95 C/POTCAR              
   COPYR  = (c) Copyright 08Apr2002 Georg Kresse                                                    
   COPYR  = This file is part of the software VASP. Any use, copying, and all other rights are regul
   COPYR  = If you do not have a valid VASP license, you may not use, copy or distribute this file. 
   VRHFIN =C: s2p2                                                                                  
   LEXCH  = PE                                                                                      
   EATOM  =   147.1560 eV,   10.8157 Ry                                                             
                                                                                                    
   TITEL  = PAW_PBE C 08Apr2002                                                                     
   LULTRA =        F    use ultrasoft PP ?                                                          
   IUNSCR =        1    unscreen: 0-lin 1-nonlin 2-no                                               
   RPACOR =    1.200    partial core radius                                                         
   POMASS =   12.011; ZVAL   =    4.000    mass and valenz                                          
   RCORE  =    1.500    outmost cutoff radius                                                       
   RWIGS  =    1.630; RWIGS  =    0.863    wigner-seitz radius (au A)                               
   ENMAX  =  400.000; ENMIN  =  300.000 eV                                                          
   ICORE  =        2    local potential                                                             
   LCOR   =        T    correct aug charges                                                         
   LPAW   =        T    paw PP                                                                      
   EAUG   =  644.873                                                                                
   DEXC   =    0.000                                                                                
   RMAX   =    1.529    core radius for proj-oper                                                   
   RAUG   =    1.300    factor for augmentation sphere                                              
   RDEP   =    1.501    radius for radial grids                                                     
   RDEPT  =    1.300    core radius for aug-charge                                                  
                                                                                                    
   Atomic configuration                                                                             
    4 entries                                                                                       
     n  l   j            E        occ.                                                              
     1  0  0.50      -273.3789   2.0000                                                             
     2  0  0.50       -13.7508   2.0000                                                             
     2  1  0.50        -5.2854   2.0000                                                             
     3  2  1.50        -5.4423   0.0000                                                             
   Description                                                                                      
     l       E           TYP  RCUT    TYP  RCUT                                                     
     0    -13.7508458     23  1.200                                                                 
     0     -8.2022199     23  1.200                                                                 
     1     -5.2854383     23  1.500                                                                 
     1     34.0145650     23  1.500                                                                 
     2     -5.4423304      7  1.500                                                                 
  local pseudopotential read in
  partial core-charges read in
  partial kinetic energy density read in
  atomic valenz-charges read in
  non local Contribution for L=           0  read in
    real space projection operators read in
  non local Contribution for L=           0  read in
    real space projection operators read in
  non local Contribution for L=           1  read in
    real space projection operators read in
  non local Contribution for L=           1  read in
    real space projection operators read in
    PAW grid and wavefunctions read in
 
   number of l-projection  operators is LMAX  =           4
   number of lm-projection operators is LMMAX =           8
 
 POTCAR:    PAW_PBE H 15Jun2001                   
   SHA256 =  030f79b5d3ab3cf0e668861823c8fb652ff669f3e15e46930bd03bfd63a607b6 H/POTCAR              
   COPYR  = (c) Copyright 15Jun2001 Georg Kresse                                                    
   COPYR  = This file is part of the software VASP. Any use, copying, and all other rights are regul
   COPYR  = If you do not have a valid VASP license, you may not use, copy or distribute this file. 
   VRHFIN =H: ultrasoft test                                                                        
   LEXCH  = PE                                                                                      
   EATOM  =    12.4884 eV,    0.9179 Ry                                                             
                                                                                                    
   TITEL  = PAW_PBE H 15Jun2001                                                                     
   LULTRA =        F    use ultrasoft PP ?                                                          
   IUNSCR =        0    unscreen: 0-lin 1-nonlin 2-no                                               
   RPACOR =    0.000    partial core radius                                                         
   POMASS =    1.000; ZVAL   =    1.000    mass and valenz                                          
   RCORE  =    1.100    outmost cutoff radius                                                       
   RWIGS  =    0.700; RWIGS  =    0.370    wigner-seitz radius (au A)                               
   ENMAX  =  250.000; ENMIN  =  200.000 eV                                                          
   RCLOC  =    0.701    cutoff for local pot                                                        
   LCOR   =        T    correct aug charges                                                         
   LPAW   =        T    paw PP                                                                      
   EAUG   =  400.000                                                                                
   RMAX   =    1.123    core radius for proj-oper                                                   
   RAUG   =    1.200    factor for augmentation sphere                                              
   RDEP   =    1.112    radius for radial grids                                                     
   RDEPT  =    0.926    core radius for aug-charge                                                  
                                                                                                    
   Atomic configuration                                                                             
    2 entries                                                                                       
     n  l   j            E        occ.                                                              
     1  0  0.50        -6.4927   1.0000                                                             
     2  1  0.50        -3.4015   0.0000                                                             
   Description                                                                                      
     l       E           TYP  RCUT    TYP  RCUT                                                     
     0     -6.4927494     23  1.100                                                                 
     0      6.8029130     23  1.100                                                                 
     1     -4.0817478     23  1.100                                                                 
  local pseudopotential read in
  atomic valenz-charges read in
  non local Contribution for L=           0  read in
    real space projection operators read in
  non local Contribution for L=           0  read in
    real space projection operators read in
  non local Contribution for L=           1  read in
    real space projection operators read in
    PAW grid and wavefunctions read in
 
   number of l-projection  operators is LMAX  =           3
   number of lm-projection operators is LMMAX =           5
 
 Optimization of the real space projectors (new method)

 maximal supplied QI-value         = 25.13
 optimisation between [QCUT,QGAM] = [ 11.31, 22.87] = [ 35.82,146.48] Ry 
 Optimized for a Real-space Cutoff    1.00 Angstroem

   l    n(q)    QCUT    max X(q) W(low)/X(q) W(high)/X(q)  e(spline) 
   0      7    11.310   115.676    0.43E-03    0.13E-02    0.19E-06
   0      7    11.310    87.132    0.43E-03    0.13E-02    0.18E-06
   1      6    11.310     4.429    0.42E-03    0.74E-03    0.11E-06
   1      6    11.310     2.733    0.34E-03    0.55E-03    0.92E-07
 Optimization of the real space projectors (new method)

 maximal supplied QI-value         = 34.20
 optimisation between [QCUT,QGAM] = [ 11.29, 22.57] = [ 35.68,142.71] Ry 
 Optimized for a Real-space Cutoff    1.16 Angstroem

   l    n(q)    QCUT    max X(q) W(low)/X(q) W(high)/X(q)  e(spline) 
   0      8    11.287    19.460    0.40E-03    0.73E-03    0.16E-06
   0      8    11.287    12.209    0.38E-03    0.70E-03    0.15E-06
   1      7    11.287     4.655    0.22E-03    0.25E-04    0.22E-06
 -----------------------------------------------------------------------------
|                                                                             |
|               ----> ADVICE to this user running VASP <----                  |
|                                                                             |
|     You enforced a specific xc type in the INCAR file but a different       |
|     type was found in the POTCAR file.                                      |
|     I HOPE YOU KNOW WHAT YOU ARE DOING!                                     |
|                                                                             |
 -----------------------------------------------------------------------------

  PAW_PBE C 08Apr2002                   :
 energy of atom  1       EATOM= -147.1560
 kinetic energy error for atom=    0.0076 (will be added to EATOM!!)
  PAW_PBE H 15Jun2001                   :
 energy of atom  2       EATOM=  -12.4884
 kinetic energy error for atom=    0.0020 (will be added to EATOM!!)
 
 
 POSCAR:  C  H
  positions in cartesian coordinates
  No initial velocities read in
 exchange correlation table for  LEXCH =       17
   RHO(1)=    0.500       N(1)  =     2000
   RHO(2)=  100.500       N(2)  =     4000

 VTST: version 4.1, (05/19/21)

 CHAIN: initializing optimizer
 
 OPT: Using VASP Conjugate-Gradient optimizer
 CHAIN: Read ICHAIN            0
 
 POSCAR:  C  H
  positions in cartesian coordinates
  No initial velocities read in
 


--------------------------------------------------------------------------------------------------------


 ion  position               nearest neighbor table
   1  0.500  0.500  0.514-   4 1.10   5 1.10   2 1.52   3 1.52
   2  0.500  0.557  0.486-   6 1.09   8 1.09   9 1.09   1 1.52
   3  0.500  0.443  0.486-   7 1.09  10 1.09  11 1.09   1 1.52
   4  0.463  0.500  0.536-   1 1.10
   5  0.537  0.500  0.536-   1 1.10
   6  0.500  0.597  0.506-   2 1.09
   7  0.500  0.403  0.506-   3 1.09
   8  0.537  0.558  0.464-   2 1.09
   9  0.463  0.558  0.464-   2 1.09
  10  0.463  0.442  0.464-   3 1.09
  11  0.537  0.442  0.464-   3 1.09
 
  LATTYP: Found a simple orthorhombic cell.
 ALAT       =    22.3170261383
 B/A-ratio  =     1.0606601451
 C/A-ratio  =     1.3442651281
  
  Lattice vectors:
  
 A1 = (   0.0000000000, -22.3170261383,   0.0000000000)
 A2 = (  23.6707801819,   0.0000000000,   0.0000000000)
 A3 = (   0.0000000000,   0.0000000000,  30.0000000000)


Analysis of symmetry for initial positions (statically):
=====================================================================
 Subroutine PRICEL returns:
 Original cell was already a primitive cell.
 

 Routine SETGRP: Setting up the symmetry group for a 
 simple orthorhombic supercell.


 Subroutine GETGRP returns: Found  4 space group operations
 (whereof  4 operations were pure point group operations)
 out of a pool of  8 trial point group operations.


The static configuration has the point symmetry C_2v.


Analysis of symmetry for dynamics (positions and initial velocities):
=====================================================================
 Subroutine PRICEL returns:
 Original cell was already a primitive cell.
 

 Routine SETGRP: Setting up the symmetry group for a 
 simple orthorhombic supercell.


 Subroutine GETGRP returns: Found  4 space group operations
 (whereof  4 operations were pure point group operations)
 out of a pool of  8 trial point group operations.


The dynamic configuration has the point symmetry C_2v.


 Subroutine INISYM returns: Found  4 space group operations
 (whereof  4 operations are pure point group operations),
 and found     1 'primitive' translations


----------------------------------------------------------------------------------------

                                     Primitive cell                                     

  volume of cell :   15847.8426

  direct lattice vectors                    reciprocal lattice vectors
    23.670780182  0.000000000  0.000000000     0.042246178  0.000000000  0.000000000
     0.000000000 22.317026138  0.000000000     0.000000000  0.044808838  0.000000000
     0.000000000  0.000000000 30.000000000     0.000000000  0.000000000  0.033333333

  length of vectors
    23.670780182 22.317026138 30.000000000     0.042246178  0.044808838  0.033333333

  position of ions in fractional coordinates (direct lattice)
     0.500000000  0.500000000  0.513918733
     0.500000000  0.556766390  0.485655333
     0.500000000  0.443233610  0.485655333
     0.462954411  0.500000000  0.535818633
     0.537045589  0.500000000  0.535818633
     0.500000000  0.597062664  0.506397067
     0.500000000  0.402937336  0.506397067
     0.537329526  0.558441210  0.464181367
     0.462670474  0.558441210  0.464181367
     0.462670474  0.441558790  0.464181367
     0.537329526  0.441558790  0.464181367

  ion indices of the primitive-cell ions
   primitive index   ion index
                 1           1
                 2           2
                 3           3
                 4           4
                 5           5
                 6           6
                 7           7
                 8           8
                 9           9
                10          10
                11          11

----------------------------------------------------------------------------------------

 
 
 KPOINTS: KPOINTS created by Atomic Simulation Env

Automatic generation of k-mesh.
 Grid dimensions read from file:
 generate k-points for:    1    1    1

 Generating k-lattice:

  Cartesian coordinates                     Fractional coordinates (reciprocal lattice)
     0.042246178  0.000000000  0.000000000     1.000000000  0.000000000  0.000000000
     0.000000000  0.044808838  0.000000000     0.000000000  1.000000000  0.000000000
     0.000000000  0.000000000  0.033333333     0.000000000  0.000000000  1.000000000

  Length of vectors
     0.042246178  0.044808838  0.033333333

  Shift w.r.t. Gamma in fractional coordinates (k-lattice)
     0.000000000  0.000000000  0.000000000

 
 Subroutine IBZKPT returns following result:
 ===========================================
 
 Found      1 irreducible k-points:
 
 Following reciprocal coordinates:
            Coordinates               Weight
  0.000000  0.000000  0.000000      1.000000
 
 Following cartesian coordinates:
            Coordinates               Weight
  0.000000  0.000000  0.000000      1.000000
 


--------------------------------------------------------------------------------------------------------




 Dimension of arrays:
   k-points           NKPTS =      1   k-points in BZ     NKDIM =      1   number of bands    NBANDS=     16
   number of dos      NEDOS =    301   number of ions     NIONS =     11
   non local maximal  LDIM  =      4   non local SUM 2l+1 LMDIM =      8
   total plane-waves  NPLWV = ******
   max r-space proj   IRMAX =   1285   max aug-charges    IRDMAX=   2406
   dimension x,y,z NGX =   140 NGY =  126 NGZ =  168
   dimension x,y,z NGXF=   280 NGYF=  252 NGZF=  336
   support grid    NGXF=   280 NGYF=  252 NGZF=  336
   ions per type =               3   8
   NGX,Y,Z   is equivalent  to a cutoff of   9.83,  9.39,  9.31 a.u.
   NGXF,Y,Z  is equivalent  to a cutoff of  19.67, 18.77, 18.62 a.u.

 SYSTEM =  unknown system                          
 POSCAR =   C  H                                   

 Startparameter for this run:
   NWRITE =      2    write-flag & timer
   PREC   = normal    normal or accurate (medium, high low for compatibility)
   ISTART =      0    job   : 0-new  1-cont  2-samecut
   ICHARG =      2    charge: 1-file 2-atom 10-const
   ISPIN  =      1    spin polarized calculation?
   LNONCOLLINEAR =      F non collinear calculations
   LSORBIT =      F    spin-orbit coupling
   INIWAV =      1    electr: 0-lowe 1-rand  2-diag
   LASPH  =      F    aspherical Exc in radial PAW
 Electronic Relaxation 1
   ENCUT  =  500.0 eV  36.75 Ry    6.06 a.u.  43.16 40.69 54.70*2*pi/ulx,y,z
   ENINI  =  500.0     initial cutoff
   ENAUG  =  644.9 eV  augmentation charge cutoff
   NELM   =    200;   NELMIN=  2; NELMDL= -5     # of ELM steps 
   EDIFF  = 0.1E-04   stopping-criterion for ELM
   LREAL  =      T    real-space projection
   NLSPLINE    = F    spline interpolate recip. space projectors
   LCOMPAT=      F    compatible to vasp.4.4
   GGA_COMPAT  = T    GGA compatible to vasp.4.4-vasp.4.6
   LMAXPAW     = -100 max onsite density
   LMAXMIX     =    2 max onsite mixed and CHGCAR
   VOSKOWN=      0    Vosko Wilk Nusair interpolation
   ROPT   =   -0.00050  -0.00050
 Ionic relaxation
   EDIFFG = -.5E-01   stopping-criterion for IOM
   NSW    =    500    number of steps for IOM
   NBLOCK =      1;   KBLOCK =    500    inner block; outer block 
   IBRION =      2    ionic relax: 0-MD 1-quasi-New 2-CG
   NFREE  =      1    steps in history (QN), initial steepest desc. (CG)
   ISIF   =      2    stress and relaxation
   IWAVPR =     11    prediction:  0-non 1-charg 2-wave 3-comb
   ISYM   =      2    0-nonsym 1-usesym 2-fastsym
   LCORR  =      T    Harris-Foulkes like correction to forces

   POTIM  = 0.5000    time-step for ionic-motion
   TEIN   =    0.0    initial temperature
   TEBEG  =    0.0;   TEEND  =   0.0 temperature during run
   SMASS  =  -3.00    Nose mass-parameter (am)
   estimated Nose-frequenzy (Omega)   =  0.10E-29 period in steps = 0.13E+47 mass=  -0.128E-25a.u.
   SCALEE = 1.0000    scale energy and forces
   NPACO  =    256;   APACO  = 10.0  distance and # of slots for P.C.
   PSTRESS=    0.0 pullay stress

  Mass of Ions in am
   POMASS =  12.01  1.00
  Ionic Valenz
   ZVAL   =   4.00  1.00
  Atomic Wigner-Seitz radii
   RWIGS  =  -1.00 -1.00
  virtual crystal weights 
   VCA    =   1.00  1.00
   NELECT =      20.0000    total number of electrons
   NUPDOWN=      -1.0000    fix difference up-down

 DOS related values:
   EMIN   =  10.00;   EMAX   =-10.00  energy-range for DOS
   EFERMI =   0.00
   ISMEAR =     0;   SIGMA  =   0.01  broadening in eV -4-tet -1-fermi 0-gaus

 Electronic relaxation 2 (details)
   IALGO  =     58    algorithm
   LDIAG  =      T    sub-space diagonalisation (order eigenvalues)
   LSUBROT=      F    optimize rotation matrix (better conditioning)
   TURBO    =      0    0=normal 1=particle mesh
   IRESTART =      0    0=no restart 2=restart with 2 vectors
   NREBOOT  =      0    no. of reboots
   NMIN     =      0    reboot dimension
   EREF     =   0.00    reference energy to select bands
   IMIX   =      4    mixing-type and parameters
     AMIX     =   0.40;   BMIX     =  1.00
     AMIX_MAG =   1.60;   BMIX_MAG =  1.00
     AMIN     =   0.10
     WC   =   100.;   INIMIX=   1;  MIXPRE=   1;  MAXMIX= -45

 Intra band minimization:
   WEIMIN = 0.0010     energy-eigenvalue tresh-hold
   EBREAK =  0.16E-06  absolut break condition
   DEPER  =   0.30     relativ break condition  

   TIME   =   0.40     timestep for ELM

  volume/ion in A,a.u.               =    1440.71      9722.41
  Fermi-wavevector in a.u.,A,eV,Ry     =   0.176914  0.334318  0.425841  0.031298
  Thomas-Fermi vector in A             =   0.896881
 
 Write flags
   LWAVE        =      T    write WAVECAR
   LDOWNSAMPLE  =      F    k-point downsampling of WAVECAR
   LCHARG       =      T    write CHGCAR
   LVTOT        =      F    write LOCPOT, total local potential
   LVHAR        =      F    write LOCPOT, Hartree potential only
   LELF         =      F    write electronic localiz. function (ELF)
   LORBIT       =      0    0 simple, 1 ext, 2 COOP (PROOUT), +10 PAW based schemes


 Dipole corrections
   LMONO  =      F    monopole corrections only (constant potential shift)
   LDIPOL =      F    correct potential (dipole corrections)
   IDIPOL =      0    1-x, 2-y, 3-z, 4-all directions 
   EPSILON=  1.0000000 bulk dielectric constant

 Exchange correlation treatment:
   GGA     =    BF    GGA type
   LEXCH   =    17    internal setting for exchange type
   LIBXC   =     F    Libxc                    
   VOSKOWN =     0    Vosko Wilk Nusair interpolation
   LHFCALC =     F    Hartree Fock is set to
   LHFONE  =     F    Hartree Fock one center treatment
   AEXX    =    0.0000 exact exchange contribution

 vdW DFT:
   LUSE_VDW   =     T    switch on vdW DFT
   Zab_VDW    =******    correlation parameter
   PARAM1     =0.1234
   PARAM2     =1.0000
   PARAM3     =0.0000
   -- rVV10 --
   BPARAM     = 6.3000
   CPARAM     = 0.0093

 Linear response parameters
   LEPSILON=     F    determine dielectric tensor
   LRPA    =     F    only Hartree local field effects (RPA)
   LNABLA  =     F    use nabla operator in PAW spheres
   LVEL    =     F    velocity operator in full k-point grid
   CSHIFT  =0.1000    complex shift for real part using Kramers Kronig
   OMEGAMAX=  -1.0    maximum frequency
   DEG_THRESHOLD= 0.2000000E-02 threshold for treating states as degnerate
   RTIME   =   -0.100 relaxation time in fs
  (WPLASMAI=    0.000 imaginary part of plasma frequency in eV, 0.658/RTIME)
   DFIELD  = 0.0000000 0.0000000 0.0000000 field for delta impulse in time
 
  Optional k-point grid parameters
   LKPOINTS_OPT  =     F    use optional k-point grid
   KPOINTS_OPT_MODE=     1    mode for optional k-point grid
 
 Orbital magnetization related:
   ORBITALMAG=     F  switch on orbital magnetization
   LCHIMAG   =     F  perturbation theory with respect to B field
   DQ        =  0.001000  dq finite difference perturbation B field
   LLRAUG    =     F  two centre corrections for induced B field



--------------------------------------------------------------------------------------------------------


 conjugate gradient relaxation of ions
 charge density and potential will be updated during run
 non-spin polarized calculation
 Conjugate gradient for all bands (Freysoldt, et al. PRB 79, 241103 (2009))
 preconditioned conjugated gradient                                        
 perform sub-space diagonalisation
    before iterative eigenvector-optimisation
 modified Broyden-mixing scheme, WC =      100.0
 initial mixing is a Kerker type mixing with AMIX =  0.4000 and BMIX =      1.0000
 Hartree-type preconditioning will be used
 using additional bands            6
 real space projection scheme for non local part
 use partial core corrections
 no Harris-corrections to forces 
 use gradient corrections 
 use of overlap-Matrix (Vanderbilt PP)
 Gauss-broadening in eV      SIGMA  =   0.01


--------------------------------------------------------------------------------------------------------


  energy-cutoff  :      500.00
  volume of cell :    15847.84
      direct lattice vectors                 reciprocal lattice vectors
    23.670780182  0.000000000  0.000000000     0.042246178  0.000000000  0.000000000
     0.000000000 22.317026138  0.000000000     0.000000000  0.044808838  0.000000000
     0.000000000  0.000000000 30.000000000     0.000000000  0.000000000  0.033333333

  length of vectors
    23.670780182 22.317026138 30.000000000     0.042246178  0.044808838  0.033333333


 
 k-points in units of 2pi/SCALE and weight: KPOINTS created by Atomic Simulation Env
   0.00000000  0.00000000  0.00000000       1.000
 
 k-points in reciprocal lattice and weights: KPOINTS created by Atomic Simulation Env
   0.00000000  0.00000000  0.00000000       1.000
 
 position of ions in fractional coordinates (direct lattice) 
   0.50000000  0.50000000  0.51391873
   0.50000000  0.55676639  0.48565533
   0.50000000  0.44323361  0.48565533
   0.46295441  0.50000000  0.53581863
   0.53704559  0.50000000  0.53581863
   0.50000000  0.59706266  0.50639707
   0.50000000  0.40293734  0.50639707
   0.53732953  0.55844121  0.46418137
   0.46267047  0.55844121  0.46418137
   0.46267047  0.44155879  0.46418137
   0.53732953  0.44155879  0.46418137
 
 position of ions in cartesian coordinates  (Angst):
  11.83539009 11.15851307 15.41756200
  11.83539009 12.42537007 14.56966000
  11.83539009  9.89165607 14.56966000
  10.95849209 11.15851307 16.07455900
  12.71228809 11.15851307 16.07455900
  11.83539009 13.32466307 15.19191200
  11.83539009  8.99236307 15.19191200
  12.71900909 12.46274707 13.92544100
  10.95177109 12.46274707 13.92544100
  10.95177109  9.85427907 13.92544100
  12.71900909  9.85427907 13.92544100
 


--------------------------------------------------------------------------------------------------------


 use parallel FFT for orbitals z direction half grid
 k-point   1 :   0.0000 0.0000 0.0000  plane waves:  201172

 maximum and minimum number of plane-waves per node :     50298    50286

 maximum number of plane-waves:    201172
 maximum index in each direction: 
   IXMAX=   43   IYMAX=   40   IZMAX=   54
   IXMIN=  -43   IYMIN=  -40   IZMIN=    0


 real space projection operators:
  total allocation   :        523.27 KBytes
  max/ min on nodes  :        132.27        126.86


 parallel 3D FFT for wavefunctions:
    minimum data exchange during FFTs selected (reduces bandwidth)
 parallel 3D FFT for charge:
    minimum data exchange during FFTs selected (reduces bandwidth)


 total amount of memory used by VASP MPI-rank0   115909. kBytes
=======================================================================

   base      :      30000. kBytes
   nonlr-proj:        155. kBytes
   fftplans  :      29821. kBytes
   grid      :      53514. kBytes
   one-center:          4. kBytes
   wavefun   :       2415. kBytes
 
     INWAV:  cpu time      0.0005: real time      0.0006
 Broyden mixing: mesh for mixing (old mesh)
   NGX = 87   NGY = 81   NGZ =109
  (NGX  =280   NGY  =252   NGZ  =336)
  gives a total of 768123 points

 initial charge density was supplied:
 charge density of overlapping atoms calculated
 number of electron      20.0000000 magnetization 
 keeping initial charge density in first step


--------------------------------------------------------------------------------------------------------


 Maximum index for non-local projection operator          307
 Maximum index for augmentation-charges          101 (set IRDMAX)


--------------------------------------------------------------------------------------------------------


 First call to EWALD:  gamma=   0.071
 Maximum number of real-space cells 3x 3x 2
 Maximum number of reciprocal cells 3x 2x 3

    FEWALD:  cpu time      0.0063: real time      0.0063


--------------------------------------- Iteration      1(   1)  ---------------------------------------


vdW kernel read from vdw_kernel.bindat
  0.0000  0.2424  0.5071  0.7962  1.1119  1.4567  1.8333  2.2446  2.6937  3.1842
  3.7199  4.3049  4.9438  5.6415  6.4036  7.2358  8.1446  9.1372 10.2212 11.4050
 12.6979 14.1099 15.6519 17.3360 19.1751 21.1837 23.3773 25.7729 28.3892 31.2465
 34.3669 37.7748 41.4965 45.5611 50.0000
 
    POTLOK:  cpu time     16.5936: real time     16.6006
    SETDIJ:  cpu time      0.0096: real time      0.0096
    TRIAL :  cpu time      0.9938: real time      1.0398
    CORREC:  cpu time      0.0004: real time      0.0004
    --------------------------------------------
      LOOP:  cpu time     17.6077: real time     17.6633

 eigenvalue-minimisations  :    64
 total energy-change (2. order) : 0.8325967E+02  (-0.3904141E+03)
 number of electron      20.0000000 magnetization 
 augmentation part       20.0000000 magnetization 

 Free energy of the ion-electron system (eV)
  ---------------------------------------------------
  alpha Z        PSCENC =         0.10234753
  Ewald energy   TEWEN  =      1041.41174287
  -Hartree energ DENC   =     -1363.88077757
  -exchange      EXHF   =         0.00000000
  -V(xc)+E(xc)   XCENC  =        58.42965628
  PAW double counting   =       341.08137071     -344.11896915
  entropy T*S    EENTRO =        -0.00000000
  eigenvalues    EBANDS =      -202.67058240
  atomic energy  EATOM  =       552.90487896
  ---------------------------------------------------
  free energy    TOTEN  =        83.25966722 eV

  energy without entropy =       83.25966722  energy(sigma->0) =       83.25966722


--------------------------------------------------------------------------------------------------------




--------------------------------------- Iteration      1(   2)  ---------------------------------------


    TRIAL :  cpu time      0.7069: real time      0.7072
    CORREC:  cpu time      0.0003: real time      0.0003
    --------------------------------------------
      LOOP:  cpu time      0.7259: real time      0.7263

 eigenvalue-minimisations  :    48
 total energy-change (2. order) :-0.1080937E+03  (-0.1080937E+03)
 number of electron      20.0000000 magnetization 
 augmentation part       20.0000000 magnetization 

 Free energy of the ion-electron system (eV)
  ---------------------------------------------------
  alpha Z        PSCENC =         0.10234753
  Ewald energy   TEWEN  =      1041.41174287
  -Hartree energ DENC   =     -1363.88077757
  -exchange      EXHF   =         0.00000000
  -V(xc)+E(xc)   XCENC  =        58.42965628
  PAW double counting   =       341.08137071     -344.11896915
  entropy T*S    EENTRO =        -0.00000000
  eigenvalues    EBANDS =      -310.76431827
  atomic energy  EATOM  =       552.90487896
  ---------------------------------------------------
  free energy    TOTEN  =       -24.83406865 eV

  energy without entropy =      -24.83406865  energy(sigma->0) =      -24.83406865


--------------------------------------------------------------------------------------------------------




--------------------------------------- Iteration      1(   3)  ---------------------------------------


    TRIAL :  cpu time      0.6866: real time      0.6862
    CORREC:  cpu time      0.0003: real time      0.0003
    --------------------------------------------
      LOOP:  cpu time      0.6905: real time      0.7032

 eigenvalue-minimisations  :    48
 total energy-change (2. order) :-0.3383278E+02  (-0.3383278E+02)
 number of electron      20.0000000 magnetization 
 augmentation part       20.0000000 magnetization 

 Free energy of the ion-electron system (eV)
  ---------------------------------------------------
  alpha Z        PSCENC =         0.10234753
  Ewald energy   TEWEN  =      1041.41174287
  -Hartree energ DENC   =     -1363.88077757
  -exchange      EXHF   =         0.00000000
  -V(xc)+E(xc)   XCENC  =        58.42965628
  PAW double counting   =       341.08137071     -344.11896915
  entropy T*S    EENTRO =        -0.00000000
  eigenvalues    EBANDS =      -344.59709711
  atomic energy  EATOM  =       552.90487896
  ---------------------------------------------------
  free energy    TOTEN  =       -58.66684749 eV

  energy without entropy =      -58.66684749  energy(sigma->0) =      -58.66684749


--------------------------------------------------------------------------------------------------------




--------------------------------------- Iteration      1(   4)  ---------------------------------------


    TRIAL :  cpu time      0.5023: real time      0.5026
    CORREC:  cpu time      0.0003: real time      0.0003
    --------------------------------------------
      LOOP:  cpu time      0.5062: real time      0.5199

 eigenvalue-minimisations  :    32
 total energy-change (2. order) :-0.2758567E+01  (-0.2758567E+01)
 number of electron      20.0000000 magnetization 
 augmentation part       20.0000000 magnetization 

 Free energy of the ion-electron system (eV)
  ---------------------------------------------------
  alpha Z        PSCENC =         0.10234753
  Ewald energy   TEWEN  =      1041.41174287
  -Hartree energ DENC   =     -1363.88077757
  -exchange      EXHF   =         0.00000000
  -V(xc)+E(xc)   XCENC  =        58.42965628
  PAW double counting   =       341.08137071     -344.11896915
  entropy T*S    EENTRO =        -0.00000000
  eigenvalues    EBANDS =      -347.35566422
  atomic energy  EATOM  =       552.90487896
  ---------------------------------------------------
  free energy    TOTEN  =       -61.42541460 eV

  energy without entropy =      -61.42541460  energy(sigma->0) =      -61.42541460


--------------------------------------------------------------------------------------------------------




--------------------------------------- Iteration      1(   5)  ---------------------------------------


    TRIAL :  cpu time      0.8709: real time      0.8708
    CORREC:  cpu time      0.0003: real time      0.0003
    CHARGE:  cpu time      1.3656: real time      1.3660
    --------------------------------------------
      LOOP:  cpu time      2.2402: real time      2.2539

 eigenvalue-minimisations  :    64
 total energy-change (2. order) :-0.8584736E-01  (-0.8584736E-01)
 number of electron      19.9999986 magnetization 
 augmentation part        0.5600124 magnetization 

 Free energy of the ion-electron system (eV)
  ---------------------------------------------------
  alpha Z        PSCENC =         0.10234753
  Ewald energy   TEWEN  =      1041.41174287
  -Hartree energ DENC   =     -1363.88077757
  -exchange      EXHF   =         0.00000000
  -V(xc)+E(xc)   XCENC  =        58.42965628
  PAW double counting   =       341.08137071     -344.11896915
  entropy T*S    EENTRO =        -0.00000000
  eigenvalues    EBANDS =      -347.44151158
  atomic energy  EATOM  =       552.90487896
  ---------------------------------------------------
  free energy    TOTEN  =       -61.51126195 eV

  energy without entropy =      -61.51126195  energy(sigma->0) =      -61.51126195


--------------------------------------------------------------------------------------------------------




--------------------------------------- Iteration      1(   6)  ---------------------------------------


    POTLOK:  cpu time     14.9986: real time     15.0044
    SETDIJ:  cpu time      0.0096: real time      0.0096
    TRIAL :  cpu time      0.3258: real time      0.3274
    CORREC:  cpu time     17.1624: real time     17.1653
    CHARGE:  cpu time      1.3402: real time      1.3403
    --------------------------------------------
      LOOP:  cpu time     33.8385: real time     33.8620

 eigenvalue-minimisations  :     0
 total energy-change (2. order) : 0.1453707E+02  (-0.6015654E+01)
 number of electron      19.9999984 magnetization 
 augmentation part        0.4964867 magnetization 

 Free energy of the ion-electron system (eV)
  ---------------------------------------------------
  alpha Z        PSCENC =         0.10234753
  Ewald energy   TEWEN  =      1041.41174287
  -Hartree energ DENC   =     -1577.22922696
  -exchange      EXHF   =         0.00000000
  -V(xc)+E(xc)   XCENC  =        68.88732708
  PAW double counting   =      1415.28717400    -1418.47632866
  entropy T*S    EENTRO =        -0.00000000
  eigenvalues    EBANDS =      -129.86210544
  atomic energy  EATOM  =       552.90487896
  ---------------------------------------------------
  free energy    TOTEN  =       -46.97419062 eV

  energy without entropy =      -46.97419062  energy(sigma->0) =      -46.97419062


--------------------------------------------------------------------------------------------------------




--------------------------------------- Iteration      1(   7)  ---------------------------------------


    POTLOK:  cpu time     15.7465: real time     15.7505
    SETDIJ:  cpu time      0.0079: real time      0.0079
    TRIAL :  cpu time      0.3064: real time      0.3061
    CORREC:  cpu time     17.2407: real time     17.2447
    CHARGE:  cpu time      1.3388: real time      1.3400
    --------------------------------------------
      LOOP:  cpu time     34.6422: real time     34.6658

 eigenvalue-minimisations  :     0
 total energy-change (2. order) :-0.6077689E+01  (-0.6375882E+00)
 number of electron      19.9999983 magnetization 
 augmentation part        0.4759494 magnetization 

 Free energy of the ion-electron system (eV)
  ---------------------------------------------------
  alpha Z        PSCENC =         0.10234753
  Ewald energy   TEWEN  =      1041.41174287
  -Hartree energ DENC   =     -1483.81090399
  -exchange      EXHF   =         0.00000000
  -V(xc)+E(xc)   XCENC  =        64.76611895
  PAW double counting   =      1360.61067237    -1363.73886319
  entropy T*S    EENTRO =        -0.00000000
  eigenvalues    EBANDS =      -225.29787273
  atomic energy  EATOM  =       552.90487896
  ---------------------------------------------------
  free energy    TOTEN  =       -53.05187923 eV

  energy without entropy =      -53.05187923  energy(sigma->0) =      -53.05187923


--------------------------------------------------------------------------------------------------------




--------------------------------------- Iteration      1(   8)  ---------------------------------------


    POTLOK:  cpu time     15.9234: real time     15.9294
    SETDIJ:  cpu time      0.0083: real time      0.0083
    TRIAL :  cpu time      0.3038: real time      0.3034
    CORREC:  cpu time     17.2466: real time     17.2491
    CHARGE:  cpu time      1.3442: real time      1.3450
    --------------------------------------------
      LOOP:  cpu time     34.8282: real time     34.8554

 eigenvalue-minimisations  :     0
 total energy-change (2. order) :-0.6398635E+00  (-0.3074054E+00)
 number of electron      19.9999982 magnetization 
 augmentation part        0.4711597 magnetization 

 Free energy of the ion-electron system (eV)
  ---------------------------------------------------
  alpha Z        PSCENC =         0.10234753
  Ewald energy   TEWEN  =      1041.41174287
  -Hartree energ DENC   =     -1481.45359076
  -exchange      EXHF   =         0.00000000
  -V(xc)+E(xc)   XCENC  =        64.79701986
  PAW double counting   =      1402.84648949    -1405.96173457
  entropy T*S    EENTRO =        -0.00000000
  eigenvalues    EBANDS =      -228.33889612
  atomic energy  EATOM  =       552.90487896
  ---------------------------------------------------
  free energy    TOTEN  =       -53.69174274 eV

  energy without entropy =      -53.69174274  energy(sigma->0) =      -53.69174274


--------------------------------------------------------------------------------------------------------




--------------------------------------- Iteration      1(   9)  ---------------------------------------


    POTLOK:  cpu time     15.8121: real time     15.8164
    SETDIJ:  cpu time      0.0081: real time      0.0081
    TRIAL :  cpu time      0.3025: real time      0.3029
    CORREC:  cpu time     17.0628: real time     17.0708
    CHARGE:  cpu time      1.3403: real time      1.3404
    --------------------------------------------
      LOOP:  cpu time     34.5707: real time     34.5835

 eigenvalue-minimisations  :     0
 total energy-change (2. order) :-0.2961260E+00  (-0.9606049E-01)
 number of electron      19.9999982 magnetization 
 augmentation part        0.4725449 magnetization 

 Free energy of the ion-electron system (eV)
  ---------------------------------------------------
  alpha Z        PSCENC =         0.10234753
  Ewald energy   TEWEN  =      1041.41174287
  -Hartree energ DENC   =     -1474.19268496
  -exchange      EXHF   =         0.00000000
  -V(xc)+E(xc)   XCENC  =        64.55644422
  PAW double counting   =      1417.43674914    -1420.54377168
  entropy T*S    EENTRO =        -0.00000000
  eigenvalues    EBANDS =      -235.66357486
  atomic energy  EATOM  =       552.90487896
  ---------------------------------------------------
  free energy    TOTEN  =       -53.98786879 eV

  energy without entropy =      -53.98786879  energy(sigma->0) =      -53.98786879


--------------------------------------------------------------------------------------------------------




--------------------------------------- Iteration      1(  10)  ---------------------------------------


    POTLOK:  cpu time     15.3480: real time     15.3516
    SETDIJ:  cpu time      0.0080: real time      0.0080
    TRIAL :  cpu time      0.3013: real time      0.3020
    CORREC:  cpu time     16.4804: real time     16.4850
    CHARGE:  cpu time      1.3393: real time      1.3394
    --------------------------------------------
      LOOP:  cpu time     33.4790: real time     33.5024

 eigenvalue-minimisations  :     0
 total energy-change (2. order) :-0.9506581E-01  (-0.2912991E-01)
 number of electron      19.9999982 magnetization 
 augmentation part        0.4731282 magnetization 

 Free energy of the ion-electron system (eV)
  ---------------------------------------------------
  alpha Z        PSCENC =         0.10234753
  Ewald energy   TEWEN  =      1041.41174287
  -Hartree energ DENC   =     -1474.45737560
  -exchange      EXHF   =         0.00000000
  -V(xc)+E(xc)   XCENC  =        64.57216742
  PAW double counting   =      1412.36922067    -1415.47527277
  entropy T*S    EENTRO =        -0.00000000
  eigenvalues    EBANDS =      -235.51064367
  atomic energy  EATOM  =       552.90487896
  ---------------------------------------------------
  free energy    TOTEN  =       -54.08293460 eV

  energy without entropy =      -54.08293460  energy(sigma->0) =      -54.08293460


--------------------------------------------------------------------------------------------------------




--------------------------------------- Iteration      1(  11)  ---------------------------------------


    POTLOK:  cpu time     15.1316: real time     15.1351
    SETDIJ:  cpu time      0.0083: real time      0.0083
    TRIAL :  cpu time      0.3039: real time      0.3044
    CORREC:  cpu time     16.5637: real time     16.5671
    CHARGE:  cpu time      1.3365: real time      1.3373
    --------------------------------------------
      LOOP:  cpu time     33.3653: real time     33.3739

 eigenvalue-minimisations  :     0
 total energy-change (2. order) :-0.2899548E-01  (-0.7624731E-02)
 number of electron      19.9999982 magnetization 
 augmentation part        0.4734112 magnetization 

 Free energy of the ion-electron system (eV)
  ---------------------------------------------------
  alpha Z        PSCENC =         0.10234753
  Ewald energy   TEWEN  =      1041.41174287
  -Hartree energ DENC   =     -1474.19040478
  -exchange      EXHF   =         0.00000000
  -V(xc)+E(xc)   XCENC  =        64.52570963
  PAW double counting   =      1396.28825321    -1399.39505927
  entropy T*S    EENTRO =        -0.00000000
  eigenvalues    EBANDS =      -235.75939823
  atomic energy  EATOM  =       552.90487896
  ---------------------------------------------------
  free energy    TOTEN  =       -54.11193008 eV

  energy without entropy =      -54.11193008  energy(sigma->0) =      -54.11193008


--------------------------------------------------------------------------------------------------------




--------------------------------------- Iteration      1(  12)  ---------------------------------------


    POTLOK:  cpu time     15.1698: real time     15.1728
    SETDIJ:  cpu time      0.0113: real time      0.0120
    TRIAL :  cpu time      0.3040: real time      0.3036
    CORREC:  cpu time     16.4752: real time     16.4788
    CHARGE:  cpu time      1.3367: real time      1.3379
    --------------------------------------------
      LOOP:  cpu time     33.2992: real time     33.3214

 eigenvalue-minimisations  :     0
 total energy-change (2. order) :-0.7626328E-02  (-0.2040064E-02)
 number of electron      19.9999982 magnetization 
 augmentation part        0.4740507 magnetization 

 Free energy of the ion-electron system (eV)
  ---------------------------------------------------
  alpha Z        PSCENC =         0.10234753
  Ewald energy   TEWEN  =      1041.41174287
  -Hartree energ DENC   =     -1473.62425464
  -exchange      EXHF   =         0.00000000
  -V(xc)+E(xc)   XCENC  =        64.47821833
  PAW double counting   =      1385.01080310    -1388.11862547
  entropy T*S    EENTRO =        -0.00000000
  eigenvalues    EBANDS =      -236.28466708
  atomic energy  EATOM  =       552.90487896
  ---------------------------------------------------
  free energy    TOTEN  =       -54.11955641 eV

  energy without entropy =      -54.11955641  energy(sigma->0) =      -54.11955641


--------------------------------------------------------------------------------------------------------




--------------------------------------- Iteration      1(  13)  ---------------------------------------


    POTLOK:  cpu time     14.9910: real time     14.9954
    SETDIJ:  cpu time      0.0081: real time      0.0081
    TRIAL :  cpu time      0.3039: real time      0.3053
    CORREC:  cpu time     16.4636: real time     16.4669
    CHARGE:  cpu time      1.3569: real time      1.3579
    --------------------------------------------
      LOOP:  cpu time     33.1260: real time     33.1501

 eigenvalue-minimisations  :     0
 total energy-change (2. order) :-0.2042929E-02  (-0.6266386E-03)
 number of electron      19.9999982 magnetization 
 augmentation part        0.4742102 magnetization 

 Free energy of the ion-electron system (eV)
  ---------------------------------------------------
  alpha Z        PSCENC =         0.10234753
  Ewald energy   TEWEN  =      1041.41174287
  -Hartree energ DENC   =     -1474.08359540
  -exchange      EXHF   =         0.00000000
  -V(xc)+E(xc)   XCENC  =        64.49524180
  PAW double counting   =      1381.25386200    -1384.36291690
  entropy T*S    EENTRO =        -0.00000000
  eigenvalues    EBANDS =      -235.84316020
  atomic energy  EATOM  =       552.90487896
  ---------------------------------------------------
  free energy    TOTEN  =       -54.12159934 eV

  energy without entropy =      -54.12159934  energy(sigma->0) =      -54.12159934


--------------------------------------------------------------------------------------------------------




--------------------------------------- Iteration      1(  14)  ---------------------------------------


    POTLOK:  cpu time     15.0424: real time     15.0459
    SETDIJ:  cpu time      0.0080: real time      0.0080
    TRIAL :  cpu time      0.3021: real time      0.3019
    CORREC:  cpu time     16.4011: real time     16.4040
    CHARGE:  cpu time      1.3380: real time      1.3383
    --------------------------------------------
      LOOP:  cpu time     33.1098: real time     33.1165

 eigenvalue-minimisations  :     0
 total energy-change (2. order) :-0.6290738E-03  (-0.2202944E-03)
 number of electron      19.9999982 magnetization 
 augmentation part        0.4745386 magnetization 

 Free energy of the ion-electron system (eV)
  ---------------------------------------------------
  alpha Z        PSCENC =         0.10234753
  Ewald energy   TEWEN  =      1041.41174287
  -Hartree energ DENC   =     -1473.90392296
  -exchange      EXHF   =         0.00000000
  -V(xc)+E(xc)   XCENC  =        64.48810855
  PAW double counting   =      1379.91476743    -1383.02459289
  entropy T*S    EENTRO =        -0.00000000
  eigenvalues    EBANDS =      -236.01555790
  atomic energy  EATOM  =       552.90487896
  ---------------------------------------------------
  free energy    TOTEN  =       -54.12222841 eV

  energy without entropy =      -54.12222841  energy(sigma->0) =      -54.12222841


--------------------------------------------------------------------------------------------------------




--------------------------------------- Iteration      1(  15)  ---------------------------------------


    POTLOK:  cpu time     15.0378: real time     15.0503
    SETDIJ:  cpu time      0.0083: real time      0.0083
    TRIAL :  cpu time      0.3037: real time      0.3042
    CORREC:  cpu time     16.4265: real time     16.4312
    CHARGE:  cpu time      1.3375: real time      1.3374
    --------------------------------------------
      LOOP:  cpu time     33.1205: real time     33.1527

 eigenvalue-minimisations  :     0
 total energy-change (2. order) :-0.2211468E-03  (-0.7229203E-04)
 number of electron      19.9999982 magnetization 
 augmentation part        0.4746703 magnetization 

 Free energy of the ion-electron system (eV)
  ---------------------------------------------------
  alpha Z        PSCENC =         0.10234753
  Ewald energy   TEWEN  =      1041.41174287
  -Hartree energ DENC   =     -1474.04065517
  -exchange      EXHF   =         0.00000000
  -V(xc)+E(xc)   XCENC  =        64.49551958
  PAW double counting   =      1380.70972224    -1383.82003880
  entropy T*S    EENTRO =        -0.00000000
  eigenvalues    EBANDS =      -235.88596675
  atomic energy  EATOM  =       552.90487896
  ---------------------------------------------------
  free energy    TOTEN  =       -54.12244956 eV

  energy without entropy =      -54.12244956  energy(sigma->0) =      -54.12244956


--------------------------------------------------------------------------------------------------------




--------------------------------------- Iteration      1(  16)  ---------------------------------------


    POTLOK:  cpu time     15.0042: real time     15.0087
    SETDIJ:  cpu time      0.0084: real time      0.0083
    TRIAL :  cpu time      0.3026: real time      0.3026
    CORREC:  cpu time     16.3944: real time     16.3988
    CHARGE:  cpu time      1.3378: real time      1.3382
    --------------------------------------------
      LOOP:  cpu time     33.0498: real time     33.0731

 eigenvalue-minimisations  :     0
 total energy-change (2. order) :-0.7234237E-04  (-0.1827035E-04)
 number of electron      19.9999982 magnetization 
 augmentation part        0.4746676 magnetization 

 Free energy of the ion-electron system (eV)
  ---------------------------------------------------
  alpha Z        PSCENC =         0.10234753
  Ewald energy   TEWEN  =      1041.41174287
  -Hartree energ DENC   =     -1474.07203989
  -exchange      EXHF   =         0.00000000
  -V(xc)+E(xc)   XCENC  =        64.49747027
  PAW double counting   =      1381.77739686    -1384.88779419
  entropy T*S    EENTRO =        -0.00000000
  eigenvalues    EBANDS =      -235.85652431
  atomic energy  EATOM  =       552.90487896
  ---------------------------------------------------
  free energy    TOTEN  =       -54.12252190 eV

  energy without entropy =      -54.12252190  energy(sigma->0) =      -54.12252190


--------------------------------------------------------------------------------------------------------




--------------------------------------- Iteration      1(  17)  ---------------------------------------


    POTLOK:  cpu time     14.9855: real time     14.9904
    SETDIJ:  cpu time      0.0087: real time      0.0087
    TRIAL :  cpu time      0.3019: real time      0.3015
    CORREC:  cpu time     16.4380: real time     16.4430
    CHARGE:  cpu time      1.3352: real time      1.3355
    --------------------------------------------
      LOOP:  cpu time     33.0919: real time     33.1019

 eigenvalue-minimisations  :     0
 total energy-change (2. order) :-0.1806585E-04  (-0.5213722E-05)
 number of electron      19.9999982 magnetization 
 augmentation part        0.4746488 magnetization 

 Free energy of the ion-electron system (eV)
  ---------------------------------------------------
  alpha Z        PSCENC =         0.10234753
  Ewald energy   TEWEN  =      1041.41174287
  -Hartree energ DENC   =     -1474.07129118
  -exchange      EXHF   =         0.00000000
  -V(xc)+E(xc)   XCENC  =        64.49748414
  PAW double counting   =      1382.48226213    -1385.59255830
  entropy T*S    EENTRO =        -0.00000000
  eigenvalues    EBANDS =      -235.85740611
  atomic energy  EATOM  =       552.90487896
  ---------------------------------------------------
  free energy    TOTEN  =       -54.12253997 eV

  energy without entropy =      -54.12253997  energy(sigma->0) =      -54.12253997


--------------------------------------------------------------------------------------------------------




--------------------------------------- Iteration      1(  18)  ---------------------------------------


    POTLOK:  cpu time     14.9867: real time     14.9918
    SETDIJ:  cpu time      0.0081: real time      0.0081
    TRIAL :  cpu time      0.3013: real time      0.3008
    CORREC:  cpu time     16.4186: real time     16.4323
    EDDIAG:  cpu time      0.1227: real time      0.1387
    CHARGE:  cpu time      1.3323: real time      1.3322
    --------------------------------------------
      LOOP:  cpu time     33.1725: real time     33.2212

 eigenvalue-minimisations  :     0
 total energy-change (2. order) :-0.4852963E-05  (-0.1697900E-05)
 number of electron      19.9999982 magnetization 
 augmentation part        0.4746105 magnetization 

 Free energy of the ion-electron system (eV)
  ---------------------------------------------------
  alpha Z        PSCENC =         0.10234753
  Ewald energy   TEWEN  =      1041.41174287
  -Hartree energ DENC   =     -1474.09470588
  -exchange      EXHF   =         0.00000000
  -V(xc)+E(xc)   XCENC  =        64.49865693
  PAW double counting   =      1382.93843567    -1386.04863205
  entropy T*S    EENTRO =        -0.00000000
  eigenvalues    EBANDS =      -235.83526885
  atomic energy  EATOM  =       552.90487896
  ---------------------------------------------------
  free energy    TOTEN  =       -54.12254482 eV

  energy without entropy =      -54.12254482  energy(sigma->0) =      -54.12254482


--------------------------------------------------------------------------------------------------------


  average scaling for gradient   1.1044


 average (electrostatic) potential at core
  the test charge radii are     0.6991  0.5201
  (the norm of the test charge is              1.0000)
       1 -58.8778       2 -58.7155       3 -58.7155       4 -42.7110       5 -42.7110
       6 -42.7774       7 -42.7774       8 -42.7708       9 -42.7708      10 -42.7708
      11 -42.7708
 
 
 
 E-fermi :  -8.0874     XC(G=0):  -0.1129     alpha+bet : -0.0329

 Fermi energy:        -8.0874084900

 k-point     1 :       0.0000    0.0000    0.0000
  band No.  band energies     occupation 
      1     -19.6527      2.00000
      2     -17.0706      2.00000
      3     -14.6201      2.00000
      4     -11.4150      2.00000
      5     -10.8890      2.00000
      6      -9.9102      2.00000
      7      -9.4678      2.00000
      8      -8.3840      2.00000
      9      -8.3747      2.00000
     10      -8.1395      2.00000
     11      -0.9157      0.00000
     12      -0.2781      0.00000
     13      -0.2542      0.00000
     14      -0.1599      0.00000
     15       0.4090      0.00000
     16       0.6148      0.00000


--------------------------------------------------------------------------------------------------------


 soft charge-density along one line, spin component           1
         0         1         2         3         4         5         6         7         8         9
 total charge-density along one line
 
 pseudopotential strength for first ion, spin component:           1
 10.267  13.655   0.000  -0.000   0.000  -0.000   0.000  -0.000
 13.655  18.160   0.000  -0.000   0.000  -0.000   0.000  -0.000
  0.000   0.000  -4.258   0.000   0.000   8.330  -0.000  -0.000
 -0.000  -0.000   0.000  -4.259  -0.000  -0.000   8.332   0.000
  0.000   0.000   0.000  -0.000  -4.260  -0.000   0.000   8.333
 -0.000  -0.000   8.330  -0.000  -0.000 -18.436   0.000   0.000
  0.000   0.000  -0.000   8.332   0.000   0.000 -18.440  -0.000
 -0.000  -0.000  -0.000   0.000   8.333   0.000  -0.000 -18.440
 total augmentation occupancy for first ion, spin component:           1
  8.136  -3.598   0.000   0.069   0.000   0.000   0.001   0.000
 -3.598   1.620   0.000  -0.034   0.000   0.000   0.002   0.000
  0.000   0.000   1.581   0.000   0.000   0.138   0.000   0.000
  0.069  -0.034   0.000   1.602   0.000   0.000   0.137   0.000
  0.000   0.000   0.000   0.000   1.632   0.000   0.000   0.135
  0.000   0.000   0.138   0.000   0.000   0.013   0.000   0.000
  0.001   0.002   0.000   0.137   0.000   0.000   0.012   0.000
  0.000   0.000   0.000   0.000   0.135   0.000   0.000   0.012


------------------------ aborting loop because EDIFF is reached ----------------------------------------


    FORLOC:  cpu time      0.1034: real time      0.1035
    FORNL :  cpu time      0.1830: real time      0.1828
    STRESS:  cpu time      0.5277: real time      0.5273
    FORCOR:  cpu time     14.9623: real time     14.9656
    OFIELD:  cpu time      0.0045: real time      0.0045

  FORCE on cell =-STRESS in cart. coord.  units (eV):
  Direction    XX          YY          ZZ          XY          YZ          ZX
  --------------------------------------------------------------------------------------
  Alpha Z     0.10235     0.10235     0.10235
  Ewald     209.43210   605.99643   225.98344    -0.00000     0.00000     0.00000
  Hartree   386.64930   706.76827   380.65735    -0.00000    -0.00000    -0.00000
  E(xc)     -73.39911   -73.89076   -73.59402     0.00000    -0.00000    -0.00000
  Local    -753.62794 -1478.95339  -768.04637     0.00000     0.00000     0.00000
  n-local   -35.19346   -33.57076   -34.39641     0.00009     0.00004    -0.00000
  augment    -0.05397     0.03493    -0.01615    -0.00000     0.00000    -0.00000
  Kinetic   265.88678   273.83504   269.29758    -0.00036    -0.00012     0.00001
  Fock        0.00000     0.00000     0.00000     0.00000     0.00000     0.00000
  -------------------------------------------------------------------------------------
  Total      -0.20394     0.32213    -0.01222     0.00000     0.00000     0.00000
  in kB      -0.02062     0.03257    -0.00124     0.00000     0.00000     0.00000
  external pressure =        0.00 kB  Pullay stress =        0.00 kB


 VOLUME and BASIS-vectors are now :
 -----------------------------------------------------------------------------
  energy-cutoff  :      500.00
  volume of cell :    15847.84
      direct lattice vectors                 reciprocal lattice vectors
    23.670780182  0.000000000  0.000000000     0.042246178  0.000000000  0.000000000
     0.000000000 22.317026138  0.000000000     0.000000000  0.044808838  0.000000000
     0.000000000  0.000000000 30.000000000     0.000000000  0.000000000  0.033333333

  length of vectors
    23.670780182 22.317026138 30.000000000     0.042246178  0.044808838  0.033333333


 FORCES acting on ions:
    Electron-Ion                     Ewald-Force                    Non-Local-Force
 -----------------------------------------------------------------------------------------------
   0.238E-12 0.907E-12 -.889E+02   0.160E-13 0.178E-14 0.889E+02   0.217E-21 0.522E-20 0.975E-01
   0.237E-12 -.108E+03 0.410E+02   -.844E-14 0.108E+03 -.407E+02   -.642E-21 0.545E+00 -.346E+00
   0.239E-12 0.108E+03 0.410E+02   0.000E+00 -.108E+03 -.407E+02   0.665E-21 -.545E+00 -.346E+00
   0.519E+02 -.917E-13 -.503E+02   -.565E+02 0.777E-15 0.538E+02   0.452E+01 0.198E-23 -.344E+01
   -.519E+02 0.895E-13 -.503E+02   0.565E+02 0.888E-15 0.538E+02   -.452E+01 0.211E-21 -.344E+01
   0.581E-13 -.625E+02 -.294E+02   -.136E-14 0.672E+02 0.326E+02   -.111E-21 -.471E+01 -.321E+01
   0.573E-13 0.625E+02 -.294E+02   -.888E-15 -.672E+02 0.326E+02   -.205E-21 0.471E+01 -.321E+01
   -.504E+02 -.192E+02 0.417E+02   0.549E+02 0.194E+02 -.451E+02   -.458E+01 -.237E+00 0.336E+01
   0.504E+02 -.192E+02 0.417E+02   -.549E+02 0.194E+02 -.451E+02   0.458E+01 -.237E+00 0.336E+01
   0.504E+02 0.192E+02 0.417E+02   -.549E+02 -.194E+02 -.451E+02   0.458E+01 0.237E+00 0.336E+01
   -.504E+02 0.192E+02 0.417E+02   0.549E+02 -.194E+02 -.451E+02   -.458E+01 0.237E+00 0.336E+01
 -----------------------------------------------------------------------------------------------
   -.321E-11 0.313E-12 0.462E+00   0.000E+00 0.142E-13 -.568E-13   0.000E+00 0.000E+00 -.462E+00
 
 
 POSITION                                       TOTAL-FORCE (eV/Angst)
 -----------------------------------------------------------------------------------
     11.83539     11.15851     15.41756        -0.000000     -0.000000      0.118015
     11.83539     12.42537     14.56966         0.000000      0.148340     -0.024647
     11.83539      9.89166     14.56966        -0.000000     -0.148340     -0.024647
     10.95849     11.15851     16.07456        -0.001139     -0.000000      0.015990
     12.71229     11.15851     16.07456         0.001139     -0.000000      0.015990
     11.83539     13.32466     15.19191        -0.000000     -0.005021     -0.028875
     11.83539      8.99236     15.19191        -0.000000      0.005021     -0.028875
     12.71901     12.46275     13.92544        -0.009695      0.020645     -0.010738
     10.95177     12.46275     13.92544         0.009695      0.020645     -0.010738
     10.95177      9.85428     13.92544         0.009695     -0.020645     -0.010738
     12.71901      9.85428     13.92544        -0.009695     -0.020645     -0.010738
 -----------------------------------------------------------------------------------
    total drift:                               -0.000000      0.000000     -0.000270


--------------------------------------------------------------------------------------------------------



  FREE ENERGIE OF THE ION-ELECTRON SYSTEM (eV)
  ---------------------------------------------------
  free  energy   TOTEN  =       -54.12254482 eV

  energy  without entropy=      -54.12254482  energy(sigma->0) =      -54.12254482
 


--------------------------------------------------------------------------------------------------------


 BEEFens 2000 ensemble energies
             -0.166120690566772E+02
             -0.115307678698713E-01
             -0.342217324314452E+01
              0.112182518095343E+02
             -0.579014575171466E+01
             -0.444104616916687E+01
             -0.117422612665985E+02
             -0.245175452302859E+02
             -0.993786156111121E+01
             -0.108341276414542E+02
             -0.853936657371655E+01
              0.655532191194325E+00
              0.457186273468245E+00
              0.291289660868841E+00
              0.873048313182096E+00
              0.122605786865035E+02
             -0.583023872857551E+01
             -0.373908140105749E+01
              0.584436230550401E+01
             -0.291728556229981E+02
              0.138251075822871E+02
             -0.581163466470389E+01
             -0.162980373295286E+01
             -0.269916685431814E+01
             -0.160026030332574E-01
             -0.146153126481216E+01
              0.237421064207513E+02
             -0.495398532278332E+01
             -0.221377323300749E+01
             -0.140195009246293E+02
              0.194868967859948E+02
             -0.234534104733107E+01
             -0.107289685339483E+02
              0.486806250434116E+01
             -0.736468918446718E+00
              0.615263027822674E+01
             -0.529139645110945E+00
              0.905022118259474E+00
              0.902020074939446E+01
             -0.268007102181521E+02
              0.150764936636412E+02
              0.303030779787986E+01
             -0.220361610688899E+01
             -0.779141328564236E+01
              0.340641400733472E+01
             -0.390495255798800E+01
              0.124296217948232E+02
              0.924980850774540E+01
             -0.634668623961878E+01
             -0.753230856213503E+01
             -0.802463756140611E+01
             -0.990307979698373E+01
              0.566970626894053E+01
             -0.134484575213840E+02
              0.376311944220163E+01
              0.157159350595249E+02
              0.181278114166138E+02
              0.881130400182533E+01
              0.475660510769116E+01
              0.808078397607250E+01
              0.243737004129908E+02
              0.515510536905342E+01
             -0.146093202310822E+02
             -0.339980587129149E+01
             -0.764396205400757E+01
              0.163321602595504E+02
             -0.199745404846326E+02
             -0.163215980785894E+02
             -0.839829850824599E+01
             -0.366841730389626E+01
             -0.107250636229350E+02
              0.751518905872399E+01
              0.362334573193320E+01
              0.317867241873942E+01
             -0.105578491954529E+02
             -0.905758380963711E+01
             -0.147334280446217E+02
              0.924854630320900E+01
             -0.832273357616662E+01
              0.836070337623106E+01
             -0.215556154877739E+01
             -0.819625194082262E+01
             -0.136808602339606E+02
             -0.378674559824594E+01
             -0.362412196258791E+01
             -0.355741630950834E+01
              0.109931150396994E+02
              0.192070027247767E+02
             -0.107095151774405E+02
             -0.205750273900433E+02
             -0.515788900004296E+01
              0.289445383303853E+02
             -0.152433410844256E+02
              0.853878469214740E+01
             -0.215304350694441E+01
             -0.164915412582134E+02
              0.730307423811669E+01
              0.876054266780010E+01
             -0.388774115549705E+01
              0.830092668833095E+01
             -0.720335892641720E+01
             -0.143397011341084E+02
              0.250660776379643E+02
              0.115277234937849E+02
              0.679837914608689E+01
              0.260624119870681E+01
              0.466574343864502E+01
              0.216020425596043E+02
             -0.743831046132799E+01
              0.105679760426888E+01
             -0.369469948513920E+02
              0.547309378256217E+01
             -0.179231394664987E+02
              0.341621269125841E+01
              0.547107575196156E+01
             -0.889726510298945E+01
             -0.138548023746903E+02
              0.830646583405297E+00
             -0.805533114980368E+01
              0.104087252650859E+02
             -0.120034817908574E+02
             -0.152454214955110E+01
             -0.984855155362503E+01
             -0.338266041669357E+00
              0.511980882246988E+00
              0.517245673492660E+01
              0.134801963494795E+00
             -0.179529063253651E+01
              0.167465496040790E+02
              0.239093652615656E+02
              0.128910079860156E+02
              0.188238342726350E+02
             -0.377228877398683E+01
              0.179722701330932E+01
              0.136906832992721E+02
             -0.972895944667513E-01
             -0.198703661496911E+02
             -0.112559581157436E+02
             -0.130488860828322E+02
             -0.772415413397525E+01
              0.720914059519215E+01
             -0.310826507018030E+02
             -0.352322674329390E+01
              0.111026686442314E+02
             -0.108042212290370E+02
             -0.851672312190871E+01
              0.142528286031470E+02
              0.123902018717285E+02
             -0.811502034256271E+01
              0.699743264662204E+01
             -0.719033836025761E+01
              0.995613028377905E+01
              0.199808279027222E+01
              0.378180224188065E+01
             -0.221533212764368E+02
             -0.125193803277031E+02
             -0.300451501294458E+01
             -0.124166637991125E+01
             -0.105506228577557E+02
              0.286694244195163E+02
             -0.388846013046964E+01
             -0.832662720350223E+01
              0.107802492022911E+02
             -0.120910208399358E+02
             -0.971099695537539E+01
              0.776664276204536E+01
              0.285631063313076E+01
              0.282569033145288E+01
              0.347744889588657E+01
             -0.315910876356186E+01
              0.352774438940870E+01
              0.155385356305584E+02
             -0.773942151031468E+01
              0.491629871095584E+01
              0.238554162180918E+02
              0.835509390438162E+01
             -0.111563500490078E+01
             -0.467786172020751E+01
              0.398791079395738E+02
             -0.604014078380127E+01
              0.101990152991656E+02
              0.721414231634354E+01
              0.815152715411056E+01
              0.244749174733216E+02
              0.124549310369977E+02
             -0.872355488565066E+00
              0.594896681113661E+01
              0.133883139961262E+02
              0.953952476819775E+01
             -0.157234289201662E+02
              0.247659725643723E+02
             -0.232256892245645E+02
             -0.369408721589853E+01
              0.147463735670328E+02
              0.287489392850982E+01
              0.838338516226599E+00
              0.807323614025271E+01
              0.511226118982979E+01
              0.863215907355932E+01
             -0.161301959028329E+02
              0.742145478461140E+00
             -0.651131153502219E+01
             -0.111727830442202E+01
              0.942493455029023E-01
             -0.311788814131978E+01
             -0.151379409033147E+01
              0.226446998466508E+02
             -0.132858257498732E+01
             -0.773446014446373E+01
             -0.675996040324234E+00
              0.367327406091295E+01
             -0.158434353095936E+02
             -0.126693963243896E+02
             -0.882080573459625E+01
             -0.163028406661393E+02
             -0.444492746646806E+01
             -0.111344661800975E+02
              0.447832737976769E+01
             -0.227987176752819E+00
             -0.346522448281642E+01
             -0.238098753113726E+01
              0.186077032684712E+01
             -0.552633671541485E+01
              0.170066730277241E+02
             -0.226175757544233E+02
             -0.299050393436919E+01
             -0.412584635656819E+01
              0.453833675865459E+01
              0.504477751558262E+01
             -0.125688234417648E+02
             -0.382983855714238E+01
              0.119996349162339E+02
             -0.646398756310556E+01
              0.369787607092503E+01
              0.958838291513574E+01
              0.352834566627394E-01
              0.299114166333196E+02
             -0.379077573247710E+01
             -0.962643804168638E+01
              0.181059502652559E+00
             -0.746944821953542E+01
              0.131280970687224E+02
             -0.119346667528378E+02
              0.375041789923750E+01
              0.135751101677697E+02
             -0.382031568290847E+01
              0.308347819117012E+02
              0.330653865569840E+02
             -0.187412651582250E+02
              0.151815802139112E+02
              0.534416870328241E+01
             -0.141356513240618E+02
              0.573953194244500E+01
              0.108007644090048E+02
              0.113087106203357E+02
              0.886230939416528E+00
              0.523613014633051E+01
              0.191832372467544E+02
             -0.621942188042879E+01
              0.283311476301030E+01
              0.176024636073767E+02
             -0.916283582872265E+01
             -0.527885169603552E+01
              0.150798858538988E+02
              0.812797905240221E+01
              0.200579260577973E+02
              0.797078468587526E+01
              0.337738087670374E+01
              0.646083230352053E+01
              0.111362491627724E+02
             -0.128947341058041E+02
              0.139998376546478E+01
              0.559282932029113E+01
              0.210441941482176E+01
              0.630093664402047E+01
             -0.163900912545696E+02
              0.890670449408256E+01
             -0.110891791472094E+02
             -0.874186122464200E+01
              0.497820685659708E+01
             -0.335346454727031E+01
              0.152676935367811E+02
             -0.522163572609225E+01
              0.724091522405736E+01
              0.799160934686688E+01
              0.208638654440636E+02
              0.142659057571727E+02
              0.135857229895779E+02
             -0.210822520813241E+01
             -0.194376913616179E+01
             -0.852626846625114E+01
              0.208729116982399E+02
              0.213431874321100E+02
              0.974027855538986E+01
             -0.659411437385454E+01
              0.129584558363683E+02
             -0.178616962884271E+01
              0.545907195534062E+01
              0.175204030034587E+02
             -0.881264717568918E+00
             -0.304294041587698E+01
             -0.686803971586124E+01
             -0.153179241948040E+02
              0.252570845952635E+02
              0.127099824133764E+02
             -0.164613443193487E+02
             -0.454364873469212E+01
              0.621445953414539E+01
             -0.344381955466329E+01
              0.161705013048940E+02
              0.439945275083619E+01
              0.204626363071631E+02
              0.710172328908346E+01
             -0.611809813016582E+01
              0.502739848603680E+01
             -0.177257996296569E+01
             -0.675274036592043E+01
              0.438892043606302E+01
              0.515452905893335E+01
              0.236618147958904E+02
              0.197484276248122E+02
              0.151470742639207E+02
              0.184805471717213E+02
              0.249471137750579E+01
             -0.742868798723109E+01
              0.340221964958300E+01
             -0.913893664547187E+01
             -0.137504757592985E+02
             -0.147938115729899E+02
             -0.820562105729370E+01
             -0.287903839989072E+02
             -0.918991973260525E+01
             -0.222357421996703E+02
              0.495610086533246E+01
             -0.122842944569843E+02
              0.124178457871109E+02
             -0.248330051852219E+02
             -0.799549657983785E+01
              0.117619745676217E+02
              0.535315457955732E+01
             -0.226359224480295E+02
              0.141702165375904E+02
             -0.752941730789374E+01
              0.140447499621811E+02
             -0.726751537559963E+01
             -0.197912797081761E+02
              0.417343079086176E+01
             -0.162342016328790E+02
             -0.218443405008738E+01
             -0.290262669141963E+00
              0.109539993780649E+02
              0.328689820070906E+02
             -0.117561633931864E+02
             -0.979519379169835E+01
             -0.191292196271480E+01
             -0.254175600500419E+01
             -0.208402863006092E+02
             -0.156869520424783E+02
              0.138001164036290E+02
             -0.570730849724484E+01
              0.482653727552113E+01
             -0.125393197660604E+02
             -0.349069653986774E+01
             -0.114000763769999E+02
              0.129511561361519E+02
              0.367287654627410E+01
             -0.634880740047232E+01
             -0.371099068751812E+01
              0.270688511784720E+01
             -0.200190423380241E+01
              0.100798297703621E+02
             -0.698667462177119E+01
              0.227139128124546E+01
              0.882699000876717E+01
              0.351014796244507E+01
             -0.567058716097387E+01
              0.407761112874273E+02
              0.150458045494680E+02
              0.173696494121790E+01
              0.203725569793201E+01
             -0.159660734288094E+02
              0.839115961857742E+01
             -0.191545443183076E+02
             -0.830648757482943E+01
             -0.152627081211559E+02
             -0.498457317519298E+01
              0.155820831834344E+02
             -0.149981224231853E+02
              0.568976328688218E+01
             -0.126669387820300E+01
              0.479352177876180E+00
             -0.909031714288757E+01
             -0.113243060978453E+02
             -0.171051063580109E+01
             -0.974397069510936E+01
             -0.593359820127178E+01
             -0.997640255894039E+01
             -0.177845433672431E+01
             -0.842657435988910E+01
             -0.129270308945909E+02
              0.626122747010089E+01
             -0.384195379033297E+01
              0.574429267622722E+01
              0.295255988206694E+01
             -0.196054259951491E+02
             -0.139216164777872E+02
             -0.125621994467947E+02
[...]
  345          fftbrc_mpi                           45.563641                       1535   4
  346            fftbas_plan_mpi                      45.558668                     1535   5
  347              dfftw_execute                        15.436889                   4605   6
  348              map_forward                          15.278186                   1542   6
  349                map_gather                            2.371182                  778   7
  350                m_alltoallv_z                         5.205299                  778   7
  351                map_scatter                           7.679101                  778   7
  352              map_backward                         13.761479                   1528   6
  353                map_gather                            5.204950                  764   7
  354                m_alltoallv_z                         6.027867                  764   7
  355                map_scatter                           2.508434                  764   7
  356        ggaall_grid                          14.411497                          135   3
  357        m_sumb_d                              0.158198                          682   3
  358        pothar                                0.035457                            7   3
  359          m_sumb_d                              0.000524                          7   4
  360        m_bcast_d                             0.052261                            7   3
  361      potlok_metagga                        0.000078                              7   2
  362      set_dd_magatom                        0.000004                              4   2
  363      set_dd_paw                            0.052063                              7   2
  364        set_rsgf_all                          0.000011                            7   3
  365        m_sumb_d                              0.050376                           49   3
  366      wavpre_noio                           0.285295                              3   2
  367        stufak                                0.155479                            3   3
  368      eddiag                                0.357910                              3   2
  369        overl                                 0.000040                            3   3
  370        redis_proj                            0.002802                            9   3
  371          m_alltoall_d                          0.002707                          9   4
  372        fftwav_mpi                            0.166912                            3   3
  373          fft3d_mpi                             0.132855                          3   4
  374            fftbrc_mpi                            0.103287                        3   5
  375              fftbas_plan_mpi                       0.103277                      3   6
  376                dfftw_execute                         0.047520                    9   7
  377                map_forward                           0.053430                    6   7
  378                  map_gather                            0.012692                  3   8
  379                  m_alltoallv_z                         0.006729                  3   8
  380                  map_scatter                           0.015363                  3   8
  381        hamilt_local                          0.154106                            3   3
  382          vhamil                                0.046392                          3   4
  383          kinhamil                              0.107662                          3   4
  384            fftext_mpi                            0.105570                        3   5
  385              fft3d_mpi                             0.101766                      3   6
  386                fftbrc_mpi                            0.078191                    3   7
  387                  fftbas_plan_mpi                       0.078182                  3   8
  388                    dfftw_execute                         0.041160                9   9
  389                    map_backward                          0.035133                6   9
  390                      map_gather                            0.012873              3  10
  391                      m_alltoallv_z                         0.007455              3  10
  392                      map_scatter                           0.014698              3  10
  393        redis_pw                              0.024112                            9   3
  394          m_alltoall_d                          0.019880                          9   4
  395        orth1                                 0.001596                            3   3
  396        m_sumb_d                              0.002869                            3   3
  397        shift_bands_between_low_high          0.000005                            3   3
  398        lincom                                0.002369                            3   3
  399      set_charge                            4.047618                              3   2
  400        soft_charge                           0.334034                            3   3
  401          fftwav_mpi                            0.156101                          3   4
  402            fft3d_mpi                             0.130027                        3   5
  403              fftbrc_mpi                            0.106623                      3   6
  404                fftbas_plan_mpi                       0.106614                    3   7
  405                  dfftw_execute                         0.053109                  9   8
  406                  map_forward                           0.051083                  6   8
  407                    map_gather                            0.013811                3   9
  408                    m_alltoallv_z                         0.006097                3   9
  409                    map_scatter                           0.013431                3   9
  410          pw_charge                             0.022056                          3   4
  411          m_sumb_d                              0.058854                          3   4
  412          fft_gq                                0.048118                          3   4
  413            fft3d_mpi                             0.045272                        3   5
  414              fftbrc_mpi                            0.038892                      3   6
  415                fftbas_plan_mpi                       0.038884                    3   7
  416                  dfftw_execute                         0.016084                  9   8
  417                  map_backward                          0.020868                  6   8
  418                    map_gather                            0.008426                6   9
  419                    m_alltoallv_z                         0.010619                6   9
  420                    map_scatter                           0.001721                6   9
  421        m_sumb_d                              0.281841                            3   3
  422        depsum                                0.002958                            3   3
  423          m_sumb_d                              0.002842                          3   4
  424        augmentation_charge                   0.120762                            3   3
  425          m_sumb_d                              0.002769                          3   4
  426          fft3d_mpi                             0.090629                          3   4
  427            fftbrc_mpi                            0.084288                        3   5
  428              fftbas_plan_mpi                       0.084277                      3   6
  429                dfftw_execute                         0.029937                    9   7
  430                map_backward                          0.052095                    6   7
  431                  map_gather                            0.022929                  3   8
  432                  m_alltoallv_z                         0.020247                  3   8
  433                  map_scatter                           0.008842                  3   8
 
 Flat profile
 ============
 
             routine name                   CPU           calls
 ---------------------------------------------------------------
 potlok                                956.419768          76
 total_time                            363.693275           1
 set_charge                             79.691535          72
 dfftw_execute                          76.500160       22116
 m_alltoallv_z                          49.808942        7520
 force_and_stress                       49.738857           4
 map_scatter                            47.310024        7520
 ggaall_grid                            39.411093         208
 map_gather                             33.653332        7520
 fft3d_mpi                              20.264521        7372
 m_sumb_d                               11.073465        4564
 fftbas_plan_mpi                         5.394288        7372
 fftwav_mpi                              2.664327         270
 map_forward                             1.823406        7480
 edwav                                   1.375230          68
 m_alltoall_d                            1.302457        1370
 eccp                                    1.210861         141
 vhamil                                  0.918749          62
 elmin_all                               0.815969           4
 soft_charge                             0.756082          72
 augmentation_charge                     0.722281          72
 pw_charge                               0.557345          72
 m_bcast_d                               0.496404         156
 pothar                                  0.384582          76
 forloc                                  0.369330           4
 redis_pw                                0.279717         403
 w1_dscal                                0.262231          34
 stufak                                  0.213033           4
 lincom                                  0.182339         215
 fftext_mpi                              0.150133          96
 wavpre_noio                             0.129816           3
 orth1                                   0.120591         171
 m_bcast_z                               0.111817          17
 forhar                                  0.110276           4
 strelo                                  0.101359           4
 map_backward                            0.099592        7264
 rspher_all                              0.097770          53
 eddav                                   0.097673           5
 lapack                                  0.084205          21
 setdij_                                 0.072542         181
 strehar                                 0.071215           4
 fft_gq                                  0.070116          72
 inisym                                  0.042792           1
 w1_copy                                 0.040407          63
 ggemm                                   0.032987          21
 kinhamil                                0.031569          62
 eddiag                                  0.029556          41
 fftbrc_mpi                              0.024740        7372
 racc0                                   0.023602          55
 rpro_isp                                0.023236          52
 choleski                                0.016855          72
 rpro1                                   0.016788          50
 set_dd_paw                              0.013922          80
 redis_proj                              0.012985         967
 apply_precond                           0.010797          16
 rpromu                                  0.008821          52
 rpromu_gemm                             0.007905         572
 overl                                   0.006002         218
 densta                                  0.005493          83
 fewald                                  0.005178           4
 orthch                                  0.004349          72
 setup_precond                           0.003342           5
 strkin                                  0.003227           4
 brgrid                                  0.002866           1
 rsp                                     0.002643           4
 depsum                                  0.002459          72
 strnlr                                  0.001770           4
 newband                                 0.001082          26
 redis_pw_all                            0.000927          68
 hamilt_local                            0.000685          41
 fornlr                                  0.000543           4
 potlok_metagga                          0.000510          76
 overl1                                  0.000465          21
 hamiltmu                                0.000424          21
 redis_pw_over_bands                     0.000347          75
 rcp                                     0.000281           4
 crpa_reader                             0.000238           1
 raccmu_                                 0.000236          21
 fordep                                  0.000212           4
 set_rsgf_all                            0.000211          80
 w1_projall                              0.000074          16
 phaser                                  0.000055          91
 rotate_active_occupied_orbital          0.000044           4
 proall                                  0.000041           4
 posmap                                  0.000030           2
 truncate_high_frequency_w1              0.000025          26
 vectorpot                               0.000015           1
 set_dd_magatom                          0.000013           8
 shift_bands_between_low_high            0.000010           7
 ---------------------------------------------------------------
  summed up times    1748.99146294594     
 
 Accumulative profile
 ====================
 
             routine name                   CPU           calls
 ---------------------------------------------------------------
 total_time                           1748.991463           1
 potlok                               1204.004858          76
 elmin_all                            1154.301931           4
 fft3d_mpi                             234.879005        7372
 fftbrc_mpi                            214.614484        7372
 fftbas_plan_mpi                       214.589744        7372
 set_charge                             96.448307          72
 dfftw_execute                          76.500160       22116
 map_forward                            69.898046        7480
 force_and_stress                       63.055330           4
 map_backward                           62.797250        7264
 m_alltoallv_z                          49.808942        7520
 map_scatter                            47.310024        7520
 ggaall_grid                            39.411093         208
 map_gather                             33.653332        7520
 fftwav_mpi                             14.606035         270
 m_sumb_d                               11.073465        4564
 edwav                                  10.810756          68
 soft_charge                             7.769454          72
 eddav                                   3.795976           5
 fftext_mpi                              3.396616          96
 eddiag                                  3.015109          41
 augmentation_charge                     2.983409          72
 rpro_isp                                2.778266          52
 kinhamil                                2.242168          62
 hamilt_local                            2.098760          41
 strnlr                                  1.969334           4
 m_alltoall_d                            1.302457        1370
 eccp                                    1.218739         141
 redis_pw                                1.217130         403
 fft_gq                                  1.139041          72
 hamiltmu                                1.071401          21
 vhamil                                  0.918749          62
 fornlr                                  0.690850           4
 set_dd_paw                              0.581943          80
 pw_charge                               0.557345          72
 m_bcast_d                               0.496404         156
 pothar                                  0.400208          76
 redis_proj                              0.378028         967
 forloc                                  0.373180           4
 newband                                 0.348951          26
 wavpre_noio                             0.285295           3
 w1_dscal                                0.262231          34
 proall                                  0.251841           4
 stufak                                  0.213033           4
 redis_pw_over_bands                     0.211733          75
 redis_pw_all                            0.211386          68
 orthch                                  0.193748          72
 lincom                                  0.182339         215
 depsum                                  0.174590          72
 setdij_                                 0.135190         181
 orth1                                   0.120591         171
 m_bcast_z                               0.111817          17
 forhar                                  0.110766           4
 strelo                                  0.104897           4
 rspher_all                              0.097770          53
 densta                                  0.089081          83
 lapack                                  0.084205          21
 strehar                                 0.073739           4
 racc0                                   0.046186          55
 inisym                                  0.042822           1
 w1_copy                                 0.040407          63
 ggemm                                   0.032987          21
 rpromu                                  0.024451          52
 rpro1                                   0.022155          50
 choleski                                0.016855          72
 fordep                                  0.011937           4
 apply_precond                           0.010797          16
 fewald                                  0.009278           4
 raccmu_                                 0.008135          21
 rpromu_gemm                             0.007905         572
 overl                                   0.006002         218
 strkin                                  0.005468           4
 w1_projall                              0.004938          16
 setup_precond                           0.003664           5
 brgrid                                  0.002866           1
 rsp                                     0.002643           4
 potlok_metagga                          0.000510          76
 overl1                                  0.000465          21
 rcp                                     0.000281           4
 crpa_reader                             0.000238           1
 set_rsgf_all                            0.000211          80
 phaser                                  0.000055          91
 rotate_active_occupied_orbital          0.000044           4
 posmap                                  0.000030           2
 truncate_high_frequency_w1              0.000025          26
 vectorpot                               0.000015           1
 set_dd_magatom                          0.000013           8
 shift_bands_between_low_high            0.000010           7
 ---------------------------------------------------------------
 
Profiling took   0.149479  0.053343  0.010641  0.009726 seconds
Profiling took   0.252327 seconds
