 vasp.6.3.2 27Jun22 (build Jan 03 2024 23:25:20) gamma-only                     
  
 executed on           IFC15_impi date 2024.02.01  05:27:33
 running  512 mpi-ranks, with    1 threads/rank
 distrk:  each k-point on  512 cores,    1 groups
 distr:  one band on NCORE=  32 cores,   16 groups


--------------------------------------------------------------------------------------------------------


 INCAR:
   ENCUT = 500.000000
   SIGMA = 0.010000
   EDIFF = 1.00e-05
   ALGO = A
   ISMEAR = 0
   NELM = 2000
   NSW = 500
   NCORE = 32
   LCHARG = .FALSE.
   LWAVE = .FALSE.
   LREAL = Auto
   IBRION = 2
   EDIFFG = -0.05
   GGA = BF
   LUSE_VDW = .TRUE.
   ZAB_VDW = -1.8867
   LBEEFENS = .TRUE.
   DIPOL = 0.5 0.5 0.65
   IDIPOL = 3
   LDIPOL = .TRUE.

 POTCAR:    PAW_PBE Au 04Oct2007                  
 POTCAR:    PAW_PBE C 08Apr2002                   
 POTCAR:    PAW_PBE H 15Jun2001                   
 POTCAR:    PAW_PBE O 08Apr2002                   
 POTCAR:    PAW_PBE Sr_sv 07Sep2000               
 POTCAR:    PAW_PBE Ti_sv 26Sep2005               
 -----------------------------------------------------------------------------
|                                                                             |
|               ----> ADVICE to this user running VASP <----                  |
|                                                                             |
|     You have switched on vdW-DFT.                                           |
|     This routine was written and supplied by Jiri Klimes. We recommend      |
|     that you carefully read and cite the following publications:            |
|       J. Klimes, D.R. Bowler, A. Michelides                                 |
|          J. Phys.: Cond Matt. 22 022201 (2010)                              |
|       J. Klimes, D.R. Bowler, A. Michelides                                 |
|          Phys. Rev. B. 83, 195131 (2011)                                    |
|     and references therein.                                                 |
|                                                                             |
 -----------------------------------------------------------------------------

 POTCAR:    PAW_PBE Au 04Oct2007                  
   SHA256 =  d0044ae04e2bdce24051b198fc5c053d722a5bc6fe3c3b100514a13fc5d2db88 Au/POTCAR             
   COPYR  = (c) Copyright 04Oct2007 Georg Kresse                                                    
   COPYR  = This file is part of the software VASP. Any use, copying, and all other rights are regul
   COPYR  = If you do not have a valid VASP license, you may not use, copy or distribute this file. 
   VRHFIN =Au: s1d10                                                                                
   LEXCH  = PE                                                                                      
   EATOM  =   926.0867 eV,   68.0654 Ry                                                             
                                                                                                    
   TITEL  = PAW_PBE Au 04Oct2007                                                                    
   LULTRA =        F    use ultrasoft PP ?                                                          
   IUNSCR =        1    unscreen: 0-lin 1-nonlin 2-no                                               
   RPACOR =    2.330    partial core radius                                                         
   POMASS =  196.966; ZVAL   =   11.000    mass and valenz                                          
   RCORE  =    2.500    outmost cutoff radius                                                       
   RWIGS  =    2.840; RWIGS  =    1.503    wigner-seitz radius (au A)                               
   ENMAX  =  229.943; ENMIN  =  172.457 eV                                                          
   ICORE  =        3    local potential                                                             
   LCOR   =        T    correct aug charges                                                         
   LPAW   =        T    paw PP                                                                      
   EAUG   =  356.670                                                                                
   DEXC   =    0.000                                                                                
   RMAX   =    2.562    core radius for proj-oper                                                   
   RAUG   =    1.300    factor for augmentation sphere                                              
   RDEP   =    2.598    radius for radial grids                                                     
   RDEPT  =    2.193    core radius for aug-charge                                                  
                                                                                                    
   Atomic configuration                                                                             
   16 entries                                                                                       
     n  l   j            E        occ.                                                              
     1  0  0.50    -80748.5001   2.0000                                                             
     2  0  0.50    -14244.7466   2.0000                                                             
     2  1  1.50    -12310.9591   6.0000                                                             
     3  0  0.50     -3362.1768   2.0000                                                             
     3  1  1.50     -2801.5463   6.0000                                                             
     3  2  2.50     -2203.8206  10.0000                                                             
     4  0  0.50      -729.8168   2.0000                                                             
     4  1  1.50      -546.0527   6.0000                                                             
     4  2  2.50      -325.7302  10.0000                                                             
     4  3  3.50       -81.1472  14.0000                                                             
     5  0  0.50      -108.3201   2.0000                                                             
     5  1  1.50       -59.7479   6.0000                                                             
     5  2  2.50        -6.8783  10.0000                                                             
     6  0  0.50        -5.7602   1.0000                                                             
     6  1  1.50        -6.8029   0.0000                                                             
     5  3  2.50        -1.3606   0.0000                                                             
   Description                                                                                      
     l       E           TYP  RCUT    TYP  RCUT                                                     
     2     -6.8782861     23  2.500                                                                 
     2     -8.2388687     23  2.500                                                                 
     0     -5.7601759     23  2.500                                                                 
     0     -0.8493231     23  2.500                                                                 
     1     -2.7211652     23  2.500                                                                 
     1     27.2116520     23  2.500                                                                 
     3     -1.3605826     23  2.500                                                                 
  local pseudopotential read in
  partial core-charges read in
  partial kinetic energy density read in
  atomic valenz-charges read in
  non local Contribution for L=           2  read in
    real space projection operators read in
  non local Contribution for L=           2  read in
    real space projection operators read in
  non local Contribution for L=           0  read in
    real space projection operators read in
  non local Contribution for L=           0  read in
    real space projection operators read in
  non local Contribution for L=           1  read in
    real space projection operators read in
  non local Contribution for L=           1  read in
    real space projection operators read in
    PAW grid and wavefunctions read in
 
   number of l-projection  operators is LMAX  =           6
   number of lm-projection operators is LMMAX =          18
 
 POTCAR:    PAW_PBE C 08Apr2002                   
   SHA256 =  253f7b50bb8d59471dbedb8285d89021f4a42ed1a2c5d38a03a736e69125dd95 C/POTCAR              
   COPYR  = (c) Copyright 08Apr2002 Georg Kresse                                                    
   COPYR  = This file is part of the software VASP. Any use, copying, and all other rights are regul
   COPYR  = If you do not have a valid VASP license, you may not use, copy or distribute this file. 
   VRHFIN =C: s2p2                                                                                  
   LEXCH  = PE                                                                                      
   EATOM  =   147.1560 eV,   10.8157 Ry                                                             
                                                                                                    
   TITEL  = PAW_PBE C 08Apr2002                                                                     
   LULTRA =        F    use ultrasoft PP ?                                                          
   IUNSCR =        1    unscreen: 0-lin 1-nonlin 2-no                                               
   RPACOR =    1.200    partial core radius                                                         
   POMASS =   12.011; ZVAL   =    4.000    mass and valenz                                          
   RCORE  =    1.500    outmost cutoff radius                                                       
   RWIGS  =    1.630; RWIGS  =    0.863    wigner-seitz radius (au A)                               
   ENMAX  =  400.000; ENMIN  =  300.000 eV                                                          
   ICORE  =        2    local potential                                                             
   LCOR   =        T    correct aug charges                                                         
   LPAW   =        T    paw PP                                                                      
   EAUG   =  644.873                                                                                
   DEXC   =    0.000                                                                                
   RMAX   =    1.529    core radius for proj-oper                                                   
   RAUG   =    1.300    factor for augmentation sphere                                              
   RDEP   =    1.501    radius for radial grids                                                     
   RDEPT  =    1.300    core radius for aug-charge                                                  
                                                                                                    
   Atomic configuration                                                                             
    4 entries                                                                                       
     n  l   j            E        occ.                                                              
     1  0  0.50      -273.3789   2.0000                                                             
     2  0  0.50       -13.7508   2.0000                                                             
     2  1  0.50        -5.2854   2.0000                                                             
     3  2  1.50        -5.4423   0.0000                                                             
   Description                                                                                      
     l       E           TYP  RCUT    TYP  RCUT                                                     
     0    -13.7508458     23  1.200                                                                 
     0     -8.2022199     23  1.200                                                                 
     1     -5.2854383     23  1.500                                                                 
     1     34.0145650     23  1.500                                                                 
     2     -5.4423304      7  1.500                                                                 
  local pseudopotential read in
  partial core-charges read in
  partial kinetic energy density read in
  atomic valenz-charges read in
  non local Contribution for L=           0  read in
    real space projection operators read in
  non local Contribution for L=           0  read in
    real space projection operators read in
  non local Contribution for L=           1  read in
    real space projection operators read in
  non local Contribution for L=           1  read in
    real space projection operators read in
    PAW grid and wavefunctions read in
 
   number of l-projection  operators is LMAX  =           4
   number of lm-projection operators is LMMAX =           8
 
 POTCAR:    PAW_PBE H 15Jun2001                   
   SHA256 =  030f79b5d3ab3cf0e668861823c8fb652ff669f3e15e46930bd03bfd63a607b6 H/POTCAR              
   COPYR  = (c) Copyright 15Jun2001 Georg Kresse                                                    
   COPYR  = This file is part of the software VASP. Any use, copying, and all other rights are regul
   COPYR  = If you do not have a valid VASP license, you may not use, copy or distribute this file. 
   VRHFIN =H: ultrasoft test                                                                        
   LEXCH  = PE                                                                                      
   EATOM  =    12.4884 eV,    0.9179 Ry                                                             
                                                                                                    
   TITEL  = PAW_PBE H 15Jun2001                                                                     
   LULTRA =        F    use ultrasoft PP ?                                                          
   IUNSCR =        0    unscreen: 0-lin 1-nonlin 2-no                                               
   RPACOR =    0.000    partial core radius                                                         
   POMASS =    1.000; ZVAL   =    1.000    mass and valenz                                          
   RCORE  =    1.100    outmost cutoff radius                                                       
   RWIGS  =    0.700; RWIGS  =    0.370    wigner-seitz radius (au A)                               
   ENMAX  =  250.000; ENMIN  =  200.000 eV                                                          
   RCLOC  =    0.701    cutoff for local pot                                                        
   LCOR   =        T    correct aug charges                                                         
   LPAW   =        T    paw PP                                                                      
   EAUG   =  400.000                                                                                
   RMAX   =    1.123    core radius for proj-oper                                                   
   RAUG   =    1.200    factor for augmentation sphere                                              
   RDEP   =    1.112    radius for radial grids                                                     
   RDEPT  =    0.926    core radius for aug-charge                                                  
                                                                                                    
   Atomic configuration                                                                             
    2 entries                                                                                       
     n  l   j            E        occ.                                                              
     1  0  0.50        -6.4927   1.0000                                                             
     2  1  0.50        -3.4015   0.0000                                                             
   Description                                                                                      
     l       E           TYP  RCUT    TYP  RCUT                                                     
     0     -6.4927494     23  1.100                                                                 
     0      6.8029130     23  1.100                                                                 
     1     -4.0817478     23  1.100                                                                 
  local pseudopotential read in
  atomic valenz-charges read in
  non local Contribution for L=           0  read in
    real space projection operators read in
  non local Contribution for L=           0  read in
    real space projection operators read in
  non local Contribution for L=           1  read in
    real space projection operators read in
    PAW grid and wavefunctions read in
 
   number of l-projection  operators is LMAX  =           3
   number of lm-projection operators is LMMAX =           5
 
 POTCAR:    PAW_PBE O 08Apr2002                   
   SHA256 =  818f92134a0a090dccd8ba1447fa70422a3b330e708bb4f08108d8ae51209ddf O/POTCAR              
   COPYR  = (c) Copyright 08Apr2002 Georg Kresse                                                    
   COPYR  = This file is part of the software VASP. Any use, copying, and all other rights are regul
   COPYR  = If you do not have a valid VASP license, you may not use, copy or distribute this file. 
   VRHFIN =O: s2p4                                                                                  
   LEXCH  = PE                                                                                      
   EATOM  =   432.3788 eV,   31.7789 Ry                                                             
                                                                                                    
   TITEL  = PAW_PBE O 08Apr2002                                                                     
   LULTRA =        F    use ultrasoft PP ?                                                          
   IUNSCR =        1    unscreen: 0-lin 1-nonlin 2-no                                               
   RPACOR =    1.200    partial core radius                                                         
   POMASS =   16.000; ZVAL   =    6.000    mass and valenz                                          
   RCORE  =    1.520    outmost cutoff radius                                                       
   RWIGS  =    1.550; RWIGS  =    0.820    wigner-seitz radius (au A)                               
   ENMAX  =  400.000; ENMIN  =  300.000 eV                                                          
   ICORE  =        2    local potential                                                             
   LCOR   =        T    correct aug charges                                                         
   LPAW   =        T    paw PP                                                                      
   EAUG   =  605.392                                                                                
   DEXC   =    0.000                                                                                
   RMAX   =    1.553    core radius for proj-oper                                                   
   RAUG   =    1.300    factor for augmentation sphere                                              
   RDEP   =    1.550    radius for radial grids                                                     
   RDEPT  =    1.329    core radius for aug-charge                                                  
                                                                                                    
   Atomic configuration                                                                             
    4 entries                                                                                       
     n  l   j            E        occ.                                                              
     1  0  0.50      -514.6923   2.0000                                                             
     2  0  0.50       -23.9615   2.0000                                                             
     2  1  0.50        -9.0305   4.0000                                                             
     3  2  1.50        -9.5241   0.0000                                                             
   Description                                                                                      
     l       E           TYP  RCUT    TYP  RCUT                                                     
     0    -23.9615318     23  1.200                                                                 
     0     -9.5240782     23  1.200                                                                 
     1     -9.0304911     23  1.520                                                                 
     1      8.1634956     23  1.520                                                                 
     2     -9.5240782      7  1.500                                                                 
  local pseudopotential read in
  partial core-charges read in
  partial kinetic energy density read in
  kinetic energy density of atom read in
  atomic valenz-charges read in
  non local Contribution for L=           0  read in
    real space projection operators read in
  non local Contribution for L=           0  read in
    real space projection operators read in
  non local Contribution for L=           1  read in
    real space projection operators read in
  non local Contribution for L=           1  read in
    real space projection operators read in
    PAW grid and wavefunctions read in
 
   number of l-projection  operators is LMAX  =           4
   number of lm-projection operators is LMMAX =           8
 
 POTCAR:    PAW_PBE Sr_sv 07Sep2000               
   SHA256 =  a8389d3481648516ee67182ee030b298d280b37e29cbbf2d8595f040d757c710 Sr_sv/POTCAR          
   COPYR  = (c) Copyright 07Sep2000 Georg Kresse                                                    
   COPYR  = This file is part of the software VASP. Any use, copying, and all other rights are regul
   COPYR  = If you do not have a valid VASP license, you may not use, copy or distribute this file. 
   VRHFIN =Sr: 4s4p5s                                                                               
   LEXCH  = PE                                                                                      
   EATOM  =   843.0319 eV,   61.9611 Ry                                                             
                                                                                                    
   TITEL  = PAW_PBE Sr_sv 07Sep2000                                                                 
   LULTRA =        F    use ultrasoft PP ?                                                          
   IUNSCR =        1    unscreen: 0-lin 1-nonlin 2-no                                               
   RPACOR =    2.200    partial core radius                                                         
   POMASS =   87.620; ZVAL   =   10.000    mass and valenz                                          
   RCORE  =    2.500    outmost cutoff radius                                                       
   RWIGS  =    4.040; RWIGS  =    2.138    wigner-seitz radius (au A)                               
   ENMAX  =  229.353; ENMIN  =  172.014 eV                                                          
   RCLOC  =    2.201    cutoff for local pot                                                        
   LCOR   =        T    correct aug charges                                                         
   LPAW   =        T    paw PP                                                                      
   EAUG   =  366.804                                                                                
   DEXC   =    0.000                                                                                
   RMAX   =    2.547    core radius for proj-oper                                                   
   RAUG   =    1.300    factor for augmentation sphere                                              
   RDEP   =    2.562    radius for radial grids                                                     
   RDEPT  =    2.128    core radius for aug-charge                                                  
                                                                                                    
   Atomic configuration                                                                             
   10 entries                                                                                       
     n  l   j            E        occ.                                                              
     1  0  0.50    -15934.8930   2.0000                                                             
     2  0  0.50     -2157.6250   2.0000                                                             
     2  1  1.50     -1917.0034   6.0000                                                             
     3  0  0.50      -333.7288   2.0000                                                             
     3  1  1.50      -256.0992   6.0000                                                             
     3  2  2.50      -127.9971  10.0000                                                             
     4  0  0.50       -40.8953   2.0000                                                             
     5  0  0.50        -3.5257   1.9990                                                             
     4  1  1.50       -22.8179   6.0000                                                             
     4  2  1.50        -1.2815   0.0010                                                             
   Description                                                                                      
     l       E           TYP  RCUT    TYP  RCUT                                                     
     0    -40.8953213     23  2.480                                                                 
     0     -3.5257161     23  2.480                                                                 
     1    -22.8178632     23  2.500                                                                 
     1    -24.1784458     23  2.500                                                                 
     2     -1.2814598     23  2.500                                                                 
     2      0.2279365     23  2.500                                                                 
  local pseudopotential read in
  partial core-charges read in
  partial kinetic energy density read in
  atomic valenz-charges read in
  non local Contribution for L=           0  read in
    real space projection operators read in
  non local Contribution for L=           0  read in
    real space projection operators read in
  non local Contribution for L=           1  read in
    real space projection operators read in
  non local Contribution for L=           1  read in
    real space projection operators read in
  non local Contribution for L=           2  read in
    real space projection operators read in
  non local Contribution for L=           2  read in
    real space projection operators read in
    PAW grid and wavefunctions read in
 
   number of l-projection  operators is LMAX  =           6
   number of lm-projection operators is LMMAX =          18
 
 POTCAR:    PAW_PBE Ti_sv 26Sep2005               
   SHA256 =  4d747badb5a5ea28d858fbac70885b3f8929d6fd9e5b0dbe1ecb9878dc164da1 Ti_sv/POTCAR          
   COPYR  = (c) Copyright 26Sep2005 Georg Kresse                                                    
   COPYR  = This file is part of the software VASP. Any use, copying, and all other rights are regul
   COPYR  = If you do not have a valid VASP license, you may not use, copy or distribute this file. 
   VRHFIN =Ti: 3p4s3d                                                                               
   LEXCH  = PE                                                                                      
   EATOM  =  1588.0892 eV,  116.7213 Ry                                                             
                                                                                                    
   TITEL  = PAW_PBE Ti_sv 26Sep2005                                                                 
   LULTRA =        F    use ultrasoft PP ?                                                          
   IUNSCR =        1    unscreen: 0-lin 1-nonlin 2-no                                               
   RPACOR =    2.000    partial core radius                                                         
   POMASS =   47.880; ZVAL   =   12.000    mass and valenz                                          
   RCORE  =    2.300    outmost cutoff radius                                                       
   RWIGS  =    2.300; RWIGS  =    1.217    wigner-seitz radius (au A)                               
   ENMAX  =  274.610; ENMIN  =  205.957 eV                                                          
   ICORE  =        3    local potential                                                             
   LCOR   =        T    correct aug charges                                                         
   LPAW   =        T    paw PP                                                                      
   EAUG   =  482.848                                                                                
   RMAX   =    2.348    core radius for proj-oper                                                   
   RAUG   =    1.300    factor for augmentation sphere                                              
   RDEP   =    2.381    radius for radial grids                                                     
   RDEPT  =    1.930    core radius for aug-charge                                                  
                                                                                                    
   Atomic configuration                                                                             
    8 entries                                                                                       
     n  l   j            E        occ.                                                              
     1  0  0.50     -4865.3608   2.0000                                                             
     2  0  0.50      -533.1368   2.0000                                                             
     2  1  1.50      -440.5031   6.0000                                                             
     3  0  0.50       -59.3186   2.0000                                                             
     4  0  0.50        -3.7291   1.0000                                                             
     3  1  1.50       -35.7012   6.0000                                                             
     3  2  2.50        -1.9157   3.0000                                                             
     4  3  2.50        -1.3606   0.0000                                                             
   Description                                                                                      
     l       E           TYP  RCUT    TYP  RCUT                                                     
     0    -59.3185931     23  1.800                                                                 
     0     -3.7290822     23  2.300                                                                 
     1    -35.7012045     23  2.300                                                                 
     1     -1.3605826     23  2.300                                                                 
     2     -1.9156920     23  2.300                                                                 
     2     -0.0236318     23  2.300                                                                 
     3     -1.3605826     23  2.300                                                                 
  local pseudopotential read in
  partial core-charges read in
  partial kinetic energy density read in
  atomic valenz-charges read in
  non local Contribution for L=           0  read in
    real space projection operators read in
  non local Contribution for L=           0  read in
    real space projection operators read in
  non local Contribution for L=           1  read in
    real space projection operators read in
  non local Contribution for L=           1  read in
    real space projection operators read in
  non local Contribution for L=           2  read in
    real space projection operators read in
  non local Contribution for L=           2  read in
    real space projection operators read in
    PAW grid and wavefunctions read in
 
   number of l-projection  operators is LMAX  =           6
   number of lm-projection operators is LMMAX =          18
 
 Optimization of the real space projectors (new method)

 maximal supplied QI-value         = 15.12
 optimisation between [QCUT,QGAM] = [ 11.34, 22.83] = [ 36.00,145.93] Ry 
 Optimized for a Real-space Cutoff    1.39 Angstroem

   l    n(q)    QCUT    max X(q) W(low)/X(q) W(high)/X(q)  e(spline) 
   2      9    11.338    60.898    0.39E-03    0.42E-03    0.21E-06
   2      9    11.338    58.894    0.40E-03    0.42E-03    0.22E-06
   0      9    11.338   109.617    0.13E-03    0.20E-04    0.13E-06
   0      9    11.338    75.026    0.13E-03    0.20E-04    0.13E-06
   1      9    11.338    16.344    0.33E-04    0.24E-03    0.18E-06
   1      9    11.338    10.160    0.26E-04    0.19E-03    0.15E-06
 Optimization of the real space projectors (new method)

 maximal supplied QI-value         = 25.13
 optimisation between [QCUT,QGAM] = [ 11.31, 22.87] = [ 35.82,146.48] Ry 
 Optimized for a Real-space Cutoff    1.00 Angstroem

   l    n(q)    QCUT    max X(q) W(low)/X(q) W(high)/X(q)  e(spline) 
   0      7    11.310   115.676    0.43E-03    0.13E-02    0.19E-06
   0      7    11.310    87.132    0.43E-03    0.13E-02    0.18E-06
   1      6    11.310     4.429    0.42E-03    0.74E-03    0.11E-06
   1      6    11.310     2.733    0.34E-03    0.55E-03    0.92E-07
 Optimization of the real space projectors (new method)

 maximal supplied QI-value         = 34.20
 optimisation between [QCUT,QGAM] = [ 11.29, 22.57] = [ 35.68,142.71] Ry 
 Optimized for a Real-space Cutoff    1.16 Angstroem

   l    n(q)    QCUT    max X(q) W(low)/X(q) W(high)/X(q)  e(spline) 
   0      8    11.287    19.460    0.40E-03    0.73E-03    0.16E-06
   0      8    11.287    12.209    0.38E-03    0.70E-03    0.15E-06
   1      7    11.287     4.655    0.22E-03    0.25E-04    0.22E-06
 Optimization of the real space projectors (new method)

 maximal supplied QI-value         = 24.76
 optimisation between [QCUT,QGAM] = [ 11.39, 22.77] = [ 36.31,145.25] Ry 
 Optimized for a Real-space Cutoff    1.00 Angstroem

   l    n(q)    QCUT    max X(q) W(low)/X(q) W(high)/X(q)  e(spline) 
   0      7    11.387    20.381    0.39E-03    0.13E-02    0.15E-06
   0      7    11.387    15.268    0.42E-03    0.14E-02    0.17E-06
   1      6    11.387     5.964    0.41E-03    0.11E-02    0.17E-06
   1      6    11.387     5.382    0.39E-03    0.87E-03    0.15E-06
 Optimization of the real space projectors (new method)

 maximal supplied QI-value         = 15.12
 optimisation between [QCUT,QGAM] = [ 11.34, 22.83] = [ 36.00,145.93] Ry 
 Optimized for a Real-space Cutoff    1.56 Angstroem

   l    n(q)    QCUT    max X(q) W(low)/X(q) W(high)/X(q)  e(spline) 
   0     11    11.338    11.565    0.26E-04    0.80E-05    0.70E-07
   0     11    11.338    10.214    0.41E-04    0.15E-04    0.15E-06
   1     10    11.338   189.983    0.18E-03    0.52E-04    0.42E-06
   1     10    11.338   193.105    0.19E-03    0.52E-04    0.42E-06
   2     10    11.338   115.941    0.22E-03    0.42E-03    0.43E-06
   2     10    11.338    76.444    0.21E-03    0.41E-03    0.42E-06
 Optimization of the real space projectors (new method)

 maximal supplied QI-value         = 16.25
 optimisation between [QCUT,QGAM] = [ 11.38, 22.75] = [ 36.24,144.96] Ry 
 Optimized for a Real-space Cutoff    1.27 Angstroem

   l    n(q)    QCUT    max X(q) W(low)/X(q) W(high)/X(q)  e(spline) 
   0      9    11.376    12.277    0.53E-04    0.25E-04    0.25E-07
   0      9    11.376    11.419    0.89E-04    0.67E-05    0.35E-07
   1      8    11.376     4.010    0.13E-03    0.11E-03    0.29E-07
   1      8    11.376     6.182    0.94E-04    0.19E-03    0.11E-06
   2      8    11.376    47.177    0.13E-03    0.88E-03    0.24E-06
   2      8    11.376    42.437    0.13E-03    0.86E-03    0.23E-06
 -----------------------------------------------------------------------------
|                                                                             |
|               ----> ADVICE to this user running VASP <----                  |
|                                                                             |
|     You enforced a specific xc type in the INCAR file but a different       |
|     type was found in the POTCAR file.                                      |
|     I HOPE YOU KNOW WHAT YOU ARE DOING!                                     |
|                                                                             |
 -----------------------------------------------------------------------------

  PAW_PBE Au 04Oct2007                  :
 energy of atom  1       EATOM= -926.0867
 kinetic energy error for atom=    0.0042 (will be added to EATOM!!)
  PAW_PBE C 08Apr2002                   :
 energy of atom  2       EATOM= -147.1560
 kinetic energy error for atom=    0.0076 (will be added to EATOM!!)
  PAW_PBE H 15Jun2001                   :
 energy of atom  3       EATOM=  -12.4884
 kinetic energy error for atom=    0.0020 (will be added to EATOM!!)
  PAW_PBE O 08Apr2002                   :
 energy of atom  4       EATOM= -432.3788
 kinetic energy error for atom=    0.0224 (will be added to EATOM!!)
  PAW_PBE Sr_sv 07Sep2000               :
 energy of atom  5       EATOM= -843.0319
 kinetic energy error for atom=    0.0012 (will be added to EATOM!!)
  PAW_PBE Ti_sv 26Sep2005               :
 energy of atom  6       EATOM=-1588.0892
 kinetic energy error for atom=    0.0046 (will be added to EATOM!!)
 
 
 POSCAR: Au  C  H  O Sr Ti
  positions in direct lattice
  velocities in cartesian coordinates
 exchange correlation table for  LEXCH =       17
   RHO(1)=    0.500       N(1)  =     2000
   RHO(2)=  100.500       N(2)  =     4000

 VTST: version 4.1, (05/19/21)

 CHAIN: initializing optimizer
 
 OPT: Using VASP Conjugate-Gradient optimizer
 CHAIN: Read ICHAIN            0
 
 POSCAR: Au  C  H  O Sr Ti
  positions in direct lattice
  velocities in cartesian coordinates
 


--------------------------------------------------------------------------------------------------------


 ion  position               nearest neighbor table
   1  0.714  0.527  0.753-  46 2.71  45 2.73  48 2.81  14 2.83  50 2.86  16 2.94  22 2.97
   2  0.568  0.512  0.857-   4 2.78  45 2.83  22 2.86  21 2.89  17 2.90  35 2.90  37 2.97  29 3.44

   3  0.668  0.199  0.756-  51 2.33  52 2.34  49 2.72  33 2.75  27 2.90  24 3.37  26 3.53
   4  0.469  0.451  0.880-   2 2.78  43 2.79  21 2.79  37 2.81  10 2.82
   5  0.516  0.379  0.733-  35 2.80  36 2.82  19 2.87  26 2.89  34 2.90  37 2.95   8 3.07  33 3.20
                            43 3.26 347 4.15
   6  0.283  0.340  0.702- 177 2.06  41 2.77  11 2.80   8 2.90  31 3.09 370 3.52 344 4.06
   7  0.670  0.683  0.749-  23 2.63  46 2.67  30 2.73  45 2.79  50 3.03  44 3.06  18 3.40
   8  0.398  0.382  0.690- 133 2.03 182 2.13  41 2.77  42 2.87   6 2.90  11 3.01   5 3.07  19 3.11
                           370 3.39 347 3.77
   9  0.451  0.581  0.703- 152 2.11  29 2.69  34 2.69  13 2.73  19 2.85  18 2.86  42 3.03 353 3.63
                           338 4.36
  10  0.374  0.494  0.833-  25 2.80   4 2.82  19 2.83  12 2.84  11 2.85  21 2.90  43 3.01
  11  0.325  0.415  0.769-   6 2.80  10 2.85  41 2.85  25 2.90  42 2.90  43 2.94  31 2.97   8 3.01
                            19 3.14
  12  0.368  0.620  0.820-  32 2.75  21 2.77  10 2.84  39 2.85  25 2.91  20 2.98
  13  0.416  0.697  0.699- 184 2.03   9 2.73  20 2.76  38 2.78  47 2.94  18 2.99  28 3.10 338 4.02
                           353 4.11
  14  0.772  0.432  0.795-  48 2.71  24 2.80   1 2.83  22 2.86
  15  0.256  0.594  0.695- 161 2.03 146 2.11  32 2.69  31 2.82  25 2.87  42 3.05  28 3.54 338 3.58
                           346 3.68
  16  0.649  0.448  0.694- 174 2.15  48 2.75  26 2.87  50 2.88   1 2.94  35 3.02  24 3.22  34 3.35
                           350 3.50  22 3.61
  17  0.563  0.641  0.862-  45 2.77  30 2.81  21 2.83  39 2.84   2 2.90  29 2.95
  18  0.539  0.669  0.702- 175 2.11  29 2.76   9 2.86  50 2.87  44 2.94  13 2.99  30 3.15  47 3.15
                             7 3.40 353 3.49
  19  0.443  0.476  0.757-  10 2.83  35 2.84   9 2.85   5 2.87  42 2.90  34 2.90  43 2.92   8 3.11
                            11 3.14  29 3.32
  20  0.373  0.741  0.779-  32 2.76  13 2.76  39 2.80  38 2.81  47 2.86  12 2.98  28 3.10
  21  0.461  0.574  0.864-  12 2.77   4 2.79  17 2.83   2 2.89  10 2.90  39 2.92  29 2.93
  22  0.654  0.443  0.814-  35 2.83  14 2.86   2 2.86  37 2.87  24 2.94   1 2.97  45 3.27  16 3.61

  23  0.707  0.758  0.688- 124 2.04 162 2.06   7 2.63  44 2.78 394 3.12  46 3.23 343 3.81 342 4.21

  24  0.700  0.346  0.758-  26 2.75  14 2.80  33 2.81  49 2.81  48 2.92  22 2.94  16 3.22   3 3.37

  25  0.289  0.539  0.777-  32 2.80  10 2.80  31 2.81  15 2.87  11 2.90  12 2.91  42 2.92
  26  0.617  0.325  0.696- 187 2.04  24 2.75  33 2.80  49 2.81  27 2.87  16 2.87   5 2.89 350 3.53
                             3 3.53 347 4.21
  27  0.559  0.213  0.712- 145 2.10  40 2.84  26 2.87   3 2.90  36 2.90  33 2.93 339 4.01
  28  0.293  0.747  0.697- 163 2.07 146 2.07  32 2.77  38 2.83  20 3.10  13 3.10  15 3.54 349 4.20
                           338 4.21
  29  0.511  0.604  0.777-   9 2.69  18 2.76  39 2.84  21 2.93  35 2.93  17 2.95  45 2.99  30 3.17
                            19 3.32   2 3.44  50 3.46
  30  0.578  0.725  0.793-   7 2.73  47 2.73  44 2.80  17 2.81  39 3.00  18 3.15  29 3.17  45 3.36

  31  0.240  0.470  0.708- 147 2.11  42 2.69  25 2.81  15 2.82  11 2.97   6 3.09 344 4.16
  32  0.285  0.663  0.765-  15 2.69  12 2.75  20 2.76  28 2.77  25 2.80
  33  0.599  0.290  0.785-   3 2.75  36 2.76  37 2.79  26 2.80  24 2.81  27 2.93   5 3.20
  34  0.513  0.486  0.678- 174 2.11  76 2.15   9 2.69  35 2.77  19 2.90   5 2.90 438 3.14  50 3.28
                            16 3.35 347 3.57 353 4.02
  35  0.563  0.487  0.762-  34 2.77   5 2.80  22 2.83  19 2.84   2 2.90  50 2.92  29 2.93  45 3.00
                            37 3.02  16 3.02
  36  0.484  0.271  0.776-  40 2.73  33 2.76   5 2.82  41 2.84  27 2.90  43 2.92  37 3.36
  37  0.547  0.386  0.828-  33 2.79   4 2.81  22 2.87  43 2.88   5 2.95   2 2.97  35 3.02  36 3.36

  38  0.391  0.819  0.706- 120 2.07  13 2.78  20 2.81  47 2.82  28 2.83 349 3.64 356 4.12
  39  0.463  0.697  0.830-  20 2.80  17 2.84  29 2.84  12 2.85  21 2.92  47 2.93  30 3.00
  40  0.441  0.227  0.698- 132 2.02 182 2.16  36 2.73  27 2.84  41 2.89 339 3.86 328 4.34
  41  0.370  0.299  0.755-   8 2.77   6 2.77  43 2.80  36 2.84  11 2.85  40 2.89
  42  0.349  0.499  0.698- 152 2.11  31 2.69   8 2.87  11 2.90  19 2.90  25 2.92   9 3.03  15 3.05
                           338 4.17 370 4.25
  43  0.427  0.373  0.815-   4 2.79  41 2.80  37 2.88  36 2.92  19 2.92  11 2.94  10 3.01   5 3.26

  44  0.597  0.785  0.713- 183 2.09  23 2.78  30 2.80  47 2.92  18 2.94   7 3.06 343 4.17 356 4.34

  45  0.632  0.587  0.800-   1 2.73  17 2.77   7 2.79   2 2.83  50 2.92  29 2.99  35 3.00  22 3.27
                            30 3.36
  46  0.732  0.616  0.694- 154 2.09 162 2.10   7 2.67   1 2.71  50 2.84  23 3.23 342 3.40 329 3.71

  47  0.485  0.777  0.755-  30 2.73  38 2.82  20 2.86  44 2.92  39 2.93  13 2.94  18 3.15
  48  0.763  0.433  0.705- 185 2.01  14 2.71  16 2.75   1 2.81  24 2.92 324 3.78 350 4.25
  49  0.719  0.262  0.690- 125 2.01 141 2.06   3 2.72  26 2.81  24 2.81 433 3.06 350 3.99 331 4.13

  50  0.620  0.573  0.704- 160 2.08  46 2.84   1 2.86  18 2.87  16 2.88  45 2.92  35 2.92   7 3.03
                            34 3.28  29 3.46 342 3.70
  51  0.755  0.152  0.765-  54 1.09  53 1.09  52 1.38   3 2.33
  52  0.717  0.108  0.752-  56 1.09  55 1.09  51 1.38   3 2.34
  53  0.764  0.160  0.800-  51 1.09
  54  0.783  0.172  0.741-  51 1.09
  55  0.694  0.081  0.776-  52 1.09
  56  0.715  0.094  0.717-  52 1.09
  57  0.750  0.190  0.456- 449 1.99 447 2.09 360 2.74 372 2.80 332 2.86 381 2.86
  58  0.582  0.062  0.545- 401 1.84 440 2.22 378 2.67 366 2.69 339 3.00 331 3.06
  59  0.586  0.814  0.550- 403 1.92 443 2.05 368 2.75 367 2.80 343 2.96 356 3.02
  60  0.748  0.311  0.548- 433 1.95 448 2.00 350 2.65 360 2.75 372 2.86 324 3.03
  61  0.581  0.560  0.549- 438 1.88 426 2.09 353 2.70 359 2.75 342 2.83 363 2.86
  62  0.253  0.559  0.544- 452 1.91 430 2.04 374 2.63 326 2.79 338 2.87 346 3.19
  63  0.416  0.320  0.553- 425 1.97 437 1.97 347 2.65 370 2.73 391 2.98 362 2.99
  64  0.577  0.436  0.552- 438 1.94 419 2.07 347 2.62 359 2.77 350 2.90 363 3.03
  65  0.417  0.065  0.547- 454 1.84 431 2.26 361 2.74 378 2.77 339 2.95 328 3.08
  66  0.085  0.813  0.547- 457 1.85 462 2.16 365 2.66 390 2.73 348 3.16 334 3.37
  67  0.087  0.313  0.547- 451 1.84 442 2.25 379 2.68 389 2.76 344 2.87 341 3.39
  68  0.500  0.757  0.593- 456 1.97 443 2.03 367 2.67 356 2.73 353 2.95
  69  0.082  0.063  0.548- 445 1.84 463 2.22 388 2.70 376 2.71 371 3.19 345 3.29
  70  0.915  0.689  0.546- 459 1.85 464 2.25 323 2.67 390 2.72 329 2.84 336 3.41
  71  0.584  0.938  0.546- 403 1.84 440 2.25 366 2.68 378 2.71 343 2.93 356 3.04
  72  0.917  0.189  0.546- 404 1.85 460 2.18 372 2.67 389 2.69 340 3.13 371 3.32
  73  0.915  0.438  0.546- 399 1.85 407 2.23 357 2.67 358 2.70 324 2.90 341 3.40
  74  0.579  0.686  0.548- 426 1.93 443 2.12 353 2.64 367 2.71 342 2.81 368 2.86
  75  0.252  0.937  0.545- 408 1.83 434 2.22 361 2.68 376 2.73 349 2.92 348 3.28
  76  0.497  0.505  0.609- 461 2.10  34 2.15 438 2.25 353 2.73 347 2.99 359 3.27
  77  0.918  0.564  0.547- 459 1.85 407 2.22 358 2.69 357 2.74 329 2.89 336 3.30
  78  0.420  0.565  0.555- 461 1.89 455 2.13 353 2.66 338 2.71 359 2.93 374 3.05
  79  0.916  0.813  0.547- 458 1.84 464 2.17 323 2.67 390 2.70 325 3.27 334 3.34
  80  0.084  0.938  0.546- 457 1.84 463 2.19 376 2.67 388 2.69 348 3.24 334 3.39
  81  0.249  0.683  0.552- 436 1.97 452 1.97 338 2.73 346 2.87 365 2.90 377 2.93
  82  0.749  0.933  0.548- 427 1.83 441 2.31 366 2.77 382 2.81 343 2.88 325 3.14
  83  0.752  0.680  0.553- 394 1.96 402 1.97 342 2.63 329 2.84 323 2.98 368 3.02
  84  0.916  0.939  0.546- 458 1.84 439 2.20 382 2.65 388 2.70 325 3.24 334 3.36
  85  0.418  0.065  0.640- 431 1.80 328 2.51 339 2.54
  86  0.583  0.937  0.455- 417 2.00 403 2.06 327 2.79 351 2.82 378 2.84 366 2.87
  87  0.253  0.813  0.551- 436 1.82 408 2.07 377 2.77 365 2.88 349 2.89 348 3.19
  88  0.583  0.311  0.545- 419 1.90 435 2.10 391 2.71 360 2.75 347 2.79 350 2.88
  89  0.752  0.435  0.550- 448 1.94 450 2.04 350 2.71 357 2.84 363 2.87 324 2.93
  90  0.086  0.689  0.545- 444 1.86 462 2.24 365 2.64 390 2.71 346 2.79 336 3.44
  91  0.083  0.439  0.545- 451 1.84 429 2.22 358 2.66 326 2.68 344 3.06 341 3.39
  92  0.084  0.189  0.546- 445 1.85 442 2.19 379 2.64 389 2.66 371 3.30 345 3.37
  93  0.499  0.126  0.499- 454 1.98 401 1.99 391 2.73 322 2.76 378 2.84 339 3.23
  94  1.000  0.499  0.594- 407 1.95 429 1.96 358 2.62 341 2.90 336 2.93
  95  0.580  0.185  0.551- 401 1.95 435 1.99 391 2.76 339 2.88 360 2.88 331 2.96
  96  1.000  0.754  0.593- 462 1.96 464 1.97 390 2.58 334 2.86 336 3.05
  97  0.334  0.000  0.592- 431 2.01 434 2.03 361 2.59 349 2.72 328 2.75
  98  1.000  0.999  0.593- 439 1.99 463 2.01 388 2.59 371 2.89 334 2.91
  99  0.001  0.250  0.592- 460 1.94 442 1.99 389 2.58 371 2.94 341 2.97
 100  0.333  0.496  0.591- 461 1.85 430 2.15 374 2.70 370 2.74 338 2.87
 101  0.335  0.741  0.590- 456 1.95 436 2.04 338 2.60 377 2.68 349 3.10
 102  0.663  0.248  0.590- 435 1.87 433 2.16 360 2.64 331 2.79 350 2.79
 103  0.667  0.003  0.592- 440 2.01 441 2.01 366 2.58 343 2.73 331 2.78
 104  0.666  0.741  0.591- 443 1.93 394 2.07 342 2.57 368 2.67 343 3.18
 105  0.667  0.495  0.592- 438 1.82 450 2.14 350 2.72 363 2.73 342 2.93
 106  0.168  0.998  0.592- 434 1.98 463 2.01 376 2.57 348 2.88 345 2.91
 107  0.169  0.248  0.593- 432 1.93 442 2.03 379 2.61 344 2.78 345 2.93
 108  0.171  0.751  0.595- 436 1.87 462 2.14 365 2.75 346 2.76 348 2.83
 109  0.248  0.436  0.549- 430 1.94 446 1.98 370 2.65 374 2.82 326 2.84 344 3.03
 110  0.166  0.503  0.587- 430 1.83 429 2.04 326 2.56 346 2.81 344 3.01
 111  0.335  0.255  0.593- 437 1.89 432 2.07 370 2.66 362 2.71 328 3.08
 112  0.500  0.000  0.591- 431 1.99 440 2.01 378 2.57 339 2.77 356 2.79
 113  0.833  0.874  0.499- 427 1.94 458 2.02 323 2.74 386 2.77 382 2.81
 114  0.748  0.939  0.641- 441 1.80 325 2.50 343 2.54
 115  0.832  0.002  0.592- 441 1.99 439 2.04 382 2.57 340 2.79 325 2.88
 116  0.749  0.183  0.551- 433 1.90 447 1.97 360 2.82 331 2.91 372 2.92 340 3.06
 117  0.423  0.688  0.547- 455 1.95 456 2.00 367 2.68 353 2.76 377 2.88 338 2.92
 118  0.423  0.444  0.546- 461 1.88 425 2.07 359 2.61 374 2.84 347 2.87 370 3.12
 119  0.083  0.312  0.361- 393 1.97 369 2.79 354 2.79
 120  0.413  0.813  0.640- 456 1.95  38 2.07 349 2.61 356 2.70
 121  0.916  0.063  0.641- 439 1.80 340 2.50 371 2.50
 122  0.914  0.563  0.641- 407 1.79 336 2.49 329 2.53
 123  0.418  0.935  0.640- 431 1.80 356 2.53 349 2.58
 124  0.741  0.811  0.640- 394 1.98  23 2.04 343 2.58 325 2.68
 125  0.747  0.313  0.639-  49 2.01 433 2.04 350 2.63 324 2.76
 126  0.749  0.070  0.640- 441 1.81 331 2.51 340 2.51
 127  0.084  0.312  0.641- 442 1.80 341 2.49 344 2.51
 128  0.667  0.874  0.499- 403 1.97 427 2.00 368 2.73 351 2.75 366 2.81 343 3.26
 129  0.087  0.563  0.640- 429 1.79 336 2.51 346 2.53
 130  0.087  0.437  0.640- 429 1.79 344 2.51 341 2.52
 131  0.084  0.186  0.642- 442 1.79 345 2.50 371 2.50
 132  0.419  0.188  0.640- 437 1.99  40 2.02 339 2.62 328 2.67
 133  0.415  0.419  0.630-   8 2.03 461 2.08 347 2.53 370 2.59
 134  0.084  0.936  0.641- 463 1.80 348 2.48 334 2.49
 135  0.083  0.687  0.639- 462 1.79 336 2.47 346 2.51
 136  0.084  0.060  0.642- 463 1.80 345 2.50 371 2.51
 137  0.833  0.503  0.589- 450 1.83 407 2.07 357 2.59 329 2.80 324 2.94
 138  0.913  0.436  0.640- 407 1.80 324 2.51 341 2.53
 139  0.830  0.751  0.593- 394 1.85 464 2.09 323 2.70 329 2.80 325 2.93
 140  0.832  0.249  0.591- 433 1.83 460 2.13 372 2.65 324 2.80 340 2.86
 141  0.745  0.196  0.647- 433 2.03  49 2.06 331 2.73 340 2.86
 142  0.917  0.812  0.361- 400 1.97 375 2.79 386 2.79
 143  0.583  0.937  0.640- 440 1.80 356 2.50 343 2.51
 144  0.085  0.813  0.643- 462 1.79 348 2.48 334 2.52
 145  0.580  0.193  0.646- 435 1.92  27 2.10 339 2.71 331 2.77
 146  0.254  0.678  0.663-  28 2.07  15 2.11 338 3.01 346 3.11
 147  0.241  0.442  0.641- 430 1.90  31 2.11 344 2.62 370 2.92
 148  0.914  0.937  0.641- 439 1.80 325 2.47 334 2.50
 149  0.916  0.688  0.639- 464 1.80 336 2.48 329 2.50
 150  0.252  0.930  0.637- 434 1.81 348 2.46 349 2.49
 151  0.254  0.186  0.641- 432 1.74 328 2.52 345 2.55
 152  0.397  0.551  0.652-   9 2.11  42 2.11 461 2.16 338 2.80 353 3.49
 153  0.416  0.192  0.547- 437 1.85 454 2.04 362 2.72 391 2.73 339 3.10 328 3.25
 154  0.753  0.569  0.636- 450 1.92  46 2.09 329 2.61 342 2.73
 155  0.500  0.873  0.501- 409 1.98 403 1.99 367 2.69 378 2.81 327 2.82 356 3.26
 156  0.915  0.312  0.640- 460 1.80 341 2.51 324 2.53
 157  0.913  0.814  0.642- 464 1.79 325 2.51 334 2.51
 158  0.583  0.067  0.639- 440 1.79 339 2.50 331 2.52
 159  0.249  0.314  0.546- 446 1.85 432 2.30 370 2.65 379 2.72 362 2.74 344 3.03
 160  0.590  0.567  0.639- 438 1.99  50 2.08 342 2.62 353 2.78
 161  0.248  0.574  0.629- 430 2.00  15 2.03 346 2.53 338 2.55
 162  0.754  0.693  0.657-  23 2.06  46 2.10 394 2.40 329 2.96 342 3.19
 163  0.263  0.801  0.646- 436 1.96  28 2.07 349 2.77 348 2.93
 164  0.251  0.060  0.642- 434 1.79 328 2.49 345 2.50
 165  0.917  0.563  0.361- 406 1.97 380 2.79 364 2.79
 166  0.500  0.374  0.500- 425 1.98 419 1.99 352 2.78 359 2.80 391 2.82 347 2.86
 167  0.500  0.621  0.500- 455 1.98 426 1.98 359 2.71 330 2.79 353 2.82 367 2.95
 168  0.832  0.623  0.500- 402 1.89 459 2.04 357 2.75 364 2.80 323 2.87 329 3.12
 169  0.252  0.188  0.547- 453 1.87 432 2.12 362 2.64 379 2.73 328 3.14 345 3.34
 170  0.832  0.373  0.500- 448 1.89 399 2.05 372 2.78 333 2.78 357 2.84 324 3.11
 171  0.833  0.125  0.500- 447 1.95 404 2.02 372 2.77 382 2.79 332 2.79 340 3.37
 172  0.167  0.376  0.498- 446 1.90 451 2.02 369 2.72 326 2.76 379 2.87 344 3.29
 173  0.168  0.624  0.500- 452 1.90 444 2.05 326 2.78 337 2.80 365 2.84 346 3.04
 174  0.581  0.440  0.647-  34 2.11 438 2.12  16 2.15 347 2.88 350 3.07
 175  0.577  0.687  0.640- 443 1.87  18 2.11 353 2.60 342 2.89
 176  0.916  0.186  0.640- 460 1.79 340 2.50 371 2.53
 177  0.249  0.316  0.641- 432 1.94   6 2.06 344 2.58 370 2.66
 178  0.168  0.873  0.500- 408 1.93 457 2.02 365 2.72 321 2.79 376 2.86 348 3.53
 179  0.916  0.437  0.454- 406 1.98 399 2.10 333 2.77 357 2.78 354 2.80 358 2.91
 180  0.167  0.125  0.499- 453 1.96 445 2.00 376 2.76 379 2.77 355 2.77
 181  0.749  0.060  0.545- 447 1.84 441 2.21 366 2.65 382 2.69 331 3.10 340 3.21
 182  0.431  0.305  0.657-   8 2.13  40 2.16 437 2.36 347 2.90 370 3.49
 183  0.591  0.811  0.646- 443 1.94  44 2.09 343 2.65 356 2.80
 184  0.420  0.676  0.634-  13 2.03 456 2.04 353 2.57 338 2.61
 185  0.755  0.434  0.639-  48 2.01 450 2.02 324 2.62 350 2.78
 186  0.499  0.253  0.591- 437 1.99 435 2.04 347 2.65 391 2.66 339 2.96
 187  0.583  0.322  0.634- 435 1.97  26 2.04 347 2.52 350 2.66
 188  0.916  0.187  0.453- 412 1.98 404 2.11 372 2.76 332 2.76 335 2.79 389 2.93
 189  0.665  0.626  0.503- 426 1.93 402 2.06 342 2.70 368 2.81 363 2.81 387 2.88
 190  0.585  0.563  0.455- 426 1.99 414 2.01 359 2.78 387 2.79 363 2.79 330 2.83
 191  0.583  0.064  0.454- 417 2.00 401 2.02 381 2.78 322 2.78 366 2.88 378 2.89
 192  0.917  0.687  0.361- 400 1.97 380 2.79 364 2.79
 193  0.917  0.437  0.361- 406 1.97 354 2.79 333 2.79
 194  0.917  0.188  0.361- 412 1.97 335 2.79 332 2.79
 195  0.583  0.938  0.361- 417 1.97 327 2.79 351 2.79
 196  0.583  0.687  0.361- 413 1.97 330 2.79 387 2.79
 197  0.583  0.437  0.361- 414 1.97 352 2.79 373 2.79
 198  0.583  0.188  0.361- 415 1.97 322 2.79 381 2.79
 199  0.250  0.938  0.361- 420 1.97 321 2.79 384 2.79
 200  0.917  0.938  0.361- 410 1.97 375 2.79 386 2.79
 201  0.250  0.687  0.361- 424 1.97 337 2.79 385 2.79
 202  0.250  0.188  0.361- 395 1.97 355 2.79 392 2.79
 203  0.750  0.938  0.361- 422 1.97 351 2.79 386 2.79
 204  0.750  0.687  0.361- 421 1.97 387 2.79 364 2.79
 205  0.750  0.437  0.361- 411 1.97 373 2.79 333 2.79
 206  0.750  0.188  0.361- 449 1.97 381 2.79 332 2.79
 207  0.417  0.938  0.361- 428 1.97 384 2.79 327 2.79
 208  0.417  0.687  0.361- 423 1.97 385 2.79 330 2.79
 209  0.417  0.437  0.361- 405 1.97 383 2.79 352 2.79
 210  0.250  0.437  0.361- 418 1.97 369 2.79 383 2.79
 211  0.083  0.063  0.361- 398 1.97 355 2.79 335 2.79
 212  0.915  0.687  0.453- 400 1.98 459 2.09 364 2.76 323 2.79 380 2.80 390 2.94
 213  0.665  0.379  0.503- 419 1.95 448 2.07 350 2.69 363 2.71 373 2.89 360 2.91
 214  0.334  0.378  0.503- 425 1.94 446 2.08 374 2.70 370 2.70 383 2.88 362 2.91
 215  0.336  0.626  0.504- 455 1.92 452 2.08 338 2.74 377 2.80 374 2.83 385 2.90
 216  0.917  0.063  0.547- 404 1.85 439 2.21 382 2.71 388 2.71 340 3.07 371 3.23
 217  0.750  0.939  0.456- 427 1.95 422 2.00 351 2.83 386 2.83 366 2.84 382 2.87
 218  0.250  0.936  0.454- 408 1.94 420 2.01 321 2.78 384 2.78 361 2.90 376 2.92
 219  0.250  0.189  0.454- 395 1.97 453 2.13 362 2.74 355 2.82 392 2.82 379 2.85
 220  0.749  0.689  0.458- 402 1.96 421 2.04 368 2.78 323 2.84 387 2.85 364 2.88
 221  0.250  0.062  0.454- 420 1.98 453 2.10 392 2.80 355 2.81 361 2.84 376 2.88
 222  0.417  0.936  0.454- 409 1.99 428 2.01 327 2.76 384 2.79 378 2.87 361 2.92
 223  0.416  0.937  0.546- 409 1.85 431 2.25 361 2.71 378 2.71 349 2.88 356 3.09
 224  0.417  0.685  0.455- 455 1.91 423 2.04 330 2.77 385 2.79 377 2.84 367 2.91
 225  0.416  0.435  0.454- 425 1.97 405 2.01 383 2.77 352 2.78 359 2.83 374 2.84
 226  0.084  0.687  0.453- 396 1.97 444 2.08 337 2.76 380 2.80 365 2.82 390 2.94
 227  0.084  0.937  0.454- 398 1.99 457 2.11 321 2.77 375 2.80 376 2.89 388 2.91
 228  0.083  0.437  0.453- 397 1.97 451 2.12 354 2.76 369 2.78 326 2.79 358 2.91
 229  0.084  0.187  0.453- 393 1.98 445 2.12 355 2.76 335 2.78 379 2.87 389 2.89
 230  0.917  0.812  0.454- 400 1.98 458 2.12 323 2.75 386 2.80 375 2.80 390 2.88
 231  0.746  0.558  0.545- 450 1.96 402 1.97 363 2.61 357 2.78 342 2.83 329 3.23
 232  0.916  0.562  0.454- 406 1.98 459 2.11 357 2.76 364 2.79 380 2.81 358 2.89
 233  0.916  0.062  0.454- 410 1.98 404 2.10 332 2.79 335 2.81 382 2.86 388 2.89
 234  0.916  0.312  0.454- 412 1.98 399 2.09 372 2.78 333 2.79 354 2.81 389 2.91
 235  0.417  0.187  0.454- 416 1.98 454 2.07 322 2.79 392 2.79 391 2.82 362 2.87
 236  0.583  0.440  0.456- 414 2.00 419 2.01 359 2.69 363 2.77 352 2.85 373 2.87
 237  0.252  0.688  0.456- 452 1.99 424 2.03 377 2.76 385 2.80 337 2.87 365 2.89
 238  0.583  0.190  0.456- 415 1.98 401 2.09 391 2.72 360 2.75 322 2.85 381 2.86
 239  0.000  0.125  0.498- 404 1.96 445 1.98 335 2.74 389 2.79 388 2.80
 240  0.583  0.810  0.455- 413 1.98 403 2.10 368 2.73 367 2.74 327 2.84 351 2.84
 241  1.000  0.374  0.498- 399 1.94 451 1.96 354 2.74 389 2.77 358 2.83
 242  1.000  0.627  0.498- 444 1.94 459 1.94 380 2.72 390 2.78 358 2.85
 243  0.334  0.126  0.499- 454 1.96 453 2.01 362 2.74 392 2.75 361 2.78 328 3.45
 244  0.000  0.875  0.500- 457 1.97 458 1.97 390 2.78 375 2.78 388 2.79
 245  0.334  0.874  0.499- 409 1.97 408 2.00 377 2.75 384 2.77 361 2.84 349 3.10
 246  0.666  0.126  0.500- 401 1.96 447 2.01 360 2.72 381 2.80 366 2.82 331 3.23
 247  0.251  0.439  0.455- 418 1.97 446 2.06 374 2.70 383 2.81 326 2.85 369 2.85
 248  0.083  0.563  0.361- 397 1.97 380 2.79 337 2.79
 249  0.917  0.063  0.361- 410 1.97 335 2.79 332 2.79
 250  0.750  0.813  0.453- 421 1.97 427 2.10 351 2.77 386 2.78 368 2.83 323 2.88
 251  0.750  0.439  0.456- 448 1.96 411 2.01 363 2.71 357 2.84 373 2.84 333 2.85
 252  0.916  0.937  0.454- 410 1.98 458 2.11 386 2.78 375 2.79 382 2.87 388 2.91
 253  0.916  0.312  0.547- 399 1.85 460 2.20 372 2.71 389 2.74 324 2.84 341 3.38
 254  0.081  0.564  0.546- 444 1.84 429 2.23 358 2.68 326 2.77 346 2.87 336 3.29
 255  0.583  0.063  0.361- 417 1.97 322 2.79 381 2.79
 256  0.584  0.316  0.454- 419 1.94 415 2.03 373 2.74 352 2.78 360 2.86 391 2.88
 257  0.748  0.807  0.545- 394 1.83 427 2.04 368 2.65 323 2.75 343 3.16 325 3.35
 258  0.500  0.500  0.407- 414 1.97 405 1.97 330 2.79 352 2.79 359 2.79
 259  0.083  0.188  0.361- 393 1.97 355 2.79 335 2.79
 260  0.000  0.000  0.407- 410 1.97 398 1.97 335 2.79 375 2.79 388 2.99
 261  0.000  0.250  0.407- 412 1.97 393 1.97 354 2.79 335 2.79 389 2.98
 262  0.000  0.500  0.407- 406 1.97 397 1.97 354 2.79 380 2.79 358 2.99
 263  0.748  0.564  0.454- 402 1.99 411 2.01 387 2.74 363 2.76 364 2.80 357 2.93
 264  0.333  0.000  0.407- 428 1.97 420 1.97 392 2.79 384 2.79 361 2.97
 265  0.333  0.500  0.407- 405 1.97 418 1.97 383 2.79 385 2.79 374 2.81
 266  0.333  0.750  0.407- 423 1.97 424 1.97 384 2.79 385 2.79 377 2.84
 267  0.667  0.000  0.407- 422 1.97 417 1.97 381 2.79 351 2.79 366 2.96
 268  0.667  0.250  0.407- 449 1.97 415 1.97 373 2.79 381 2.79 360 2.86
 269  0.667  0.500  0.407- 411 1.97 414 1.97 373 2.79 387 2.79 363 2.81
 270  0.833  0.250  0.407- 449 1.97 412 1.97 333 2.79 332 2.79 372 2.87
 271  0.167  0.000  0.407- 420 1.97 398 1.97 355 2.79 321 2.79 376 2.99
 272  0.167  0.500  0.407- 418 1.97 397 1.97 337 2.79 369 2.79 326 2.85
 273  0.167  0.750  0.407- 424 1.97 396 1.97 321 2.79 337 2.79 365 2.90
 274  0.500  0.000  0.407- 417 1.97 428 1.97 322 2.79 327 2.79 378 2.96
 275  0.500  0.250  0.407- 415 1.97 416 1.97 352 2.79 322 2.79 391 2.86
 276  0.500  0.750  0.407- 413 1.97 423 1.97 327 2.79 330 2.79 367 2.90
 277  0.917  0.312  0.361- 412 1.97 354 2.79 333 2.79
 278  0.333  0.250  0.407- 416 1.97 395 1.97 383 2.79 392 2.79 362 2.88
 279  0.747  0.314  0.455- 448 1.98 449 2.03 373 2.75 360 2.80 333 2.83 372 2.93
 280  0.000  0.750  0.407- 400 1.97 396 1.97 375 2.79 380 2.79 390 2.99
 281  0.417  0.810  0.455- 423 1.97 409 2.09 377 2.74 367 2.78 327 2.84 384 2.84
 282  0.749  0.064  0.453- 447 1.99 422 2.00 381 2.75 332 2.78 366 2.90 382 2.94
 283  0.833  0.000  0.407- 422 1.97 410 1.97 332 2.79 386 2.79 382 2.98
 284  0.583  0.686  0.455- 426 1.90 413 2.02 330 2.78 387 2.80 368 2.83 367 2.85
 285  0.252  0.565  0.454- 452 1.99 418 2.01 385 2.74 374 2.76 337 2.80 326 2.92
 286  0.167  0.250  0.407- 395 1.97 393 1.97 369 2.79 355 2.79 379 2.98
 287  0.251  0.811  0.455- 424 1.99 408 2.07 377 2.75 384 2.82 365 2.83 321 2.85
 288  0.667  0.750  0.407- 421 1.97 413 1.97 351 2.79 387 2.79 368 2.85
 289  0.583  0.812  0.361- 413 1.97 327 2.79 351 2.79
 290  0.250  0.563  0.361- 418 1.97 337 2.79 385 2.79
 291  0.583  0.563  0.361- 414 1.97 330 2.79 387 2.79
 292  0.250  0.812  0.361- 424 1.97 321 2.79 384 2.79
 293  0.250  0.312  0.361- 395 1.97 369 2.79 383 2.79
 294  0.250  0.063  0.361- 420 1.97 355 2.79 392 2.79
 295  0.750  0.563  0.361- 411 1.97 387 2.79 364 2.79
 296  0.750  0.312  0.361- 449 1.97 373 2.79 333 2.79
 297  0.750  0.063  0.361- 422 1.97 381 2.79 332 2.79
 298  0.417  0.812  0.361- 423 1.97 384 2.79 327 2.79
 299  0.417  0.312  0.361- 416 1.97 383 2.79 352 2.79
 300  0.750  0.812  0.361- 421 1.97 351 2.79 386 2.79
 301  0.084  0.312  0.454- 393 1.97 451 2.10 369 2.80 354 2.81 389 2.86 379 2.89
 302  0.417  0.063  0.361- 428 1.97 392 2.79 322 2.79
 303  0.417  0.062  0.455- 454 1.96 428 2.00 322 2.82 392 2.83 361 2.84 378 2.85
 304  0.083  0.812  0.454- 396 1.98 457 2.11 365 2.77 321 2.80 375 2.81 390 2.87
 305  0.417  0.563  0.361- 405 1.97 385 2.79 330 2.79
 306  0.414  0.812  0.548- 456 1.95 409 1.96 377 2.71 367 2.79 349 2.90 356 3.14
 307  0.583  0.312  0.361- 415 1.97 352 2.79 373 2.79
 308  0.084  0.563  0.454- 397 1.98 444 2.10 326 2.75 337 2.79 380 2.81 358 2.90
 309  0.251  0.063  0.547- 453 1.84 434 2.24 361 2.68 376 2.72 328 3.04 345 3.27
 310  0.833  0.500  0.407- 411 1.97 406 1.97 333 2.79 364 2.79 357 2.88
 311  0.417  0.188  0.361- 416 1.97 392 2.79 322 2.79
 312  0.083  0.938  0.361- 398 1.97 375 2.79 321 2.79
 313  0.083  0.812  0.361- 396 1.97 375 2.79 321 2.79
 314  0.083  0.437  0.361- 397 1.97 369 2.79 354 2.79
 315  0.833  0.750  0.407- 421 1.97 400 1.97 386 2.79 364 2.79 323 2.87
 316  0.416  0.311  0.457- 425 1.91 416 2.04 391 2.81 362 2.82 383 2.84 352 2.88
 317  0.084  0.062  0.454- 398 1.98 445 2.11 355 2.80 335 2.81 376 2.85 388 2.88
 318  0.416  0.560  0.458- 455 1.97 405 2.02 359 2.73 374 2.74 385 2.88 330 2.90
 319  0.083  0.687  0.361- 396 1.97 380 2.79 337 2.79
 320  0.252  0.314  0.454- 446 1.96 395 2.01 383 2.74 362 2.78 369 2.81 379 2.96
 321  0.167  0.875  0.407- 227 2.77 218 2.78 178 2.79 292 2.79 313 2.79 199 2.79 312 2.79 273 2.79
                           271 2.79 304 2.80 287 2.85 424 3.42 396 3.42 420 3.42 398 3.42 408 3.47
 322  0.500  0.125  0.407-  93 2.76 191 2.78 235 2.79 255 2.79 198 2.79 302 2.79 311 2.79 274 2.79
                           275 2.79 303 2.82 238 2.85 417 3.42 415 3.42 428 3.42 416 3.42 454 3.49
 323  0.836  0.752  0.503-  70 2.67  79 2.67 139 2.70 113 2.74 257 2.75 230 2.75 212 2.79 220 2.84
                           315 2.87 168 2.87 250 2.88  83 2.98 394 3.30 458 3.37 459 3.43 400 3.44
 324  0.838  0.373  0.603- 138 2.51 156 2.53 185 2.62 125 2.76 140 2.80 253 2.84  73 2.90  89 2.93
                           137 2.94  60 3.03 170 3.11 460 3.38 407 3.41 433 3.44 450 3.49 399 3.49
 325  0.831  0.878  0.618- 148 2.47 114 2.50 157 2.51 124 2.68 115 2.88 139 2.93  82 3.14  84 3.24
                            79 3.27 257 3.35 439 3.43 441 3.43 394 3.47 464 3.49 458 3.91 343 3.93
 326  0.164  0.500  0.502- 110 2.56  91 2.68 308 2.75 172 2.76 254 2.77 173 2.78  62 2.79 228 2.79
                           109 2.84 272 2.85 247 2.85 285 2.92 430 3.33 451 3.40 397 3.42 444 3.42
 327  0.500  0.875  0.407- 222 2.76  86 2.79 289 2.79 298 2.79 195 2.79 207 2.79 276 2.79 274 2.79
                           155 2.82 240 2.84 281 2.84 413 3.42 423 3.42 417 3.42 428 3.42 409 3.51
 328  0.332  0.120  0.614- 164 2.49  85 2.51 151 2.52 132 2.67  97 2.75 309 3.04  65 3.08 111 3.08
                           169 3.14 153 3.25 434 3.35 431 3.36 432 3.44 243 3.45 437 3.54 453 3.75
 329  0.840  0.627  0.604- 149 2.50 122 2.53 154 2.61 139 2.80 137 2.80  83 2.84  70 2.84  77 2.89
                           162 2.96 168 3.12 231 3.23 464 3.36 407 3.39 450 3.41 459 3.48 394 3.51
 330  0.500  0.625  0.407- 224 2.77 284 2.78 291 2.79 196 2.79 305 2.79 208 2.79 258 2.79 276 2.79
                           167 2.79 190 2.83 318 2.90 414 3.42 413 3.42 405 3.42 423 3.42 455 3.44
 331  0.665  0.125  0.608- 126 2.51 158 2.52 141 2.73 145 2.77 103 2.78 102 2.79 116 2.91  95 2.96
                            58 3.06 181 3.10 246 3.23 435 3.36 440 3.37 441 3.38 433 3.49 401 3.66
 332  0.833  0.125  0.407- 188 2.76 282 2.78 297 2.79 206 2.79 249 2.79 194 2.79 283 2.79 270 2.79
                           171 2.79 233 2.79  57 2.86 422 3.42 449 3.42 410 3.42 412 3.42 447 3.51
 333  0.833  0.375  0.407- 179 2.77 170 2.78 205 2.79 296 2.79 193 2.79 277 2.79 270 2.79 310 2.79
                           234 2.79 279 2.83 251 2.85 411 3.42 449 3.42 412 3.42 406 3.42 448 3.43
 334  0.999  0.875  0.624- 134 2.49 148 2.50 157 2.51 144 2.52  96 2.86  98 2.91  79 3.34  84 3.36
                            66 3.37  80 3.39 464 3.40 462 3.42 439 3.45 463 3.46 348 3.97 325 3.97
 335  0.000  0.125  0.407- 239 2.74 229 2.78 249 2.79 194 2.79 211 2.79 259 2.79 260 2.79 261 2.79
                           188 2.79 233 2.81 317 2.81 410 3.42 412 3.42 398 3.42 393 3.42 404 3.55
 336  1.000  0.624  0.624- 135 2.47 149 2.48 122 2.49 129 2.51  94 2.93  96 3.05 254 3.29  77 3.30
                            70 3.41 407 3.42 429 3.43  90 3.44 462 3.50 464 3.52 329 3.84 346 3.85
 337  0.167  0.625  0.407- 226 2.76 308 2.79 290 2.79 201 2.79 248 2.79 319 2.79 272 2.79 273 2.79
                           173 2.80 285 2.80 237 2.87 418 3.42 424 3.42 397 3.42 396 3.42 452 3.46
 338  0.334  0.625  0.595- 161 2.55 101 2.60 184 2.61  78 2.71  81 2.73 215 2.74 152 2.80  62 2.87
                           100 2.87 117 2.92 146 3.01 461 3.38 456 3.43 455 3.44 452 3.44 436 3.49
 339  0.501  0.123  0.607- 158 2.50  85 2.54 132 2.62 145 2.71 112 2.77  95 2.88  65 2.95 186 2.96
                            58 3.00 153 3.10  93 3.23 440 3.33 431 3.37 435 3.45 437 3.50 401 3.63
 340  0.835  0.124  0.612- 121 2.50 176 2.50 126 2.51 115 2.79 140 2.86 141 2.86 116 3.06 216 3.07
                            72 3.13 181 3.21 171 3.37 441 3.38 439 3.39 433 3.42 460 3.45 404 3.74
 341  0.000  0.375  0.625- 127 2.49 156 2.51 130 2.52 138 2.53  94 2.90  99 2.97 253 3.38  67 3.39
                            91 3.39  73 3.40 429 3.44 407 3.45 460 3.46 442 3.52 344 3.89 324 3.90
 342  0.667  0.626  0.593- 104 2.57 160 2.62  83 2.63 189 2.70 154 2.73  74 2.81  61 2.83 231 2.83
                           175 2.89 105 2.93 162 3.19 438 3.31 443 3.38 426 3.39 402 3.40  46 3.40
 343  0.666  0.882  0.607- 143 2.51 114 2.54 124 2.58 183 2.65 103 2.73  82 2.88  71 2.93  59 2.96
                           257 3.16 104 3.18 128 3.26 440 3.31 441 3.36 443 3.52 394 3.57 403 3.61
 344  0.163  0.371  0.607- 127 2.51 130 2.51 177 2.58 147 2.62 107 2.78  67 2.87 110 3.01 159 3.03
                           109 3.03  91 3.06 172 3.29 442 3.34 430 3.42 429 3.46 432 3.47 451 3.59
 345  0.168  0.123  0.622- 136 2.50 131 2.50 164 2.50 151 2.55 106 2.91 107 2.93 309 3.27  69 3.29
                           169 3.34  92 3.37 432 3.40 434 3.44 463 3.46 442 3.47 328 3.89 371 3.95
 346  0.160  0.628  0.601- 135 2.51 129 2.53 161 2.53 108 2.76  90 2.79 110 2.81  81 2.87 254 2.87
                           173 3.04 146 3.11  62 3.19 462 3.34 429 3.40 444 3.43 430 3.50 436 3.53
 347  0.501  0.372  0.595- 187 2.52 133 2.53  64 2.62 186 2.65  63 2.65  88 2.79 166 2.86 118 2.87
                           174 2.88 182 2.90  76 2.99 435 3.38 419 3.40 437 3.43 425 3.47 461 3.53
 348  0.166  0.874  0.618- 150 2.46 134 2.48 144 2.48 108 2.83 106 2.88 163 2.93  66 3.16  87 3.19
                            80 3.24  75 3.28 462 3.41 434 3.42 436 3.43 463 3.43 178 3.53 457 3.87
 349  0.335  0.879  0.603- 150 2.49 123 2.58 120 2.61  97 2.72 163 2.77 223 2.88  87 2.89 306 2.90
                            75 2.92 101 3.10 245 3.10 434 3.33 431 3.34 436 3.47 456 3.47 409 3.54
 350  0.671  0.373  0.593- 125 2.63  60 2.65 187 2.66 213 2.69  89 2.71 105 2.72 185 2.78 102 2.79
                            88 2.88  64 2.90 174 3.07 448 3.35 419 3.42 433 3.42 435 3.44 438 3.45
 351  0.667  0.875  0.407- 128 2.75 250 2.77 300 2.79 203 2.79 289 2.79 195 2.79 288 2.79 267 2.79
                            86 2.82 217 2.83 240 2.84 421 3.42 413 3.42 422 3.42 417 3.42 427 3.50
 352  0.500  0.375  0.407- 225 2.78 256 2.78 166 2.78 197 2.79 307 2.79 209 2.79 299 2.79 258 2.79
                           275 2.79 236 2.85 316 2.88 414 3.42 415 3.42 405 3.42 416 3.42 425 3.45
 353  0.504  0.625  0.594- 184 2.57 175 2.60  74 2.64  78 2.66  61 2.70  76 2.73 117 2.76 160 2.78
                           167 2.82  68 2.95 426 3.38 443 3.40 438 3.44 455 3.47 456 3.47  18 3.49
 354  0.000  0.375  0.407- 241 2.74 228 2.76 193 2.79 277 2.79 314 2.79 119 2.79 261 2.79 262 2.79
                           179 2.80 234 2.81 301 2.81 406 3.42 412 3.42 393 3.42 397 3.42 399 3.54
 355  0.167  0.125  0.407- 229 2.76 180 2.77 294 2.79 202 2.79 211 2.79 259 2.79 271 2.79 286 2.79
                           317 2.80 221 2.81 219 2.82 420 3.42 395 3.42 398 3.42 393 3.42 453 3.58
 356  0.502  0.877  0.610- 143 2.50 123 2.53 120 2.70  68 2.73 112 2.79 183 2.80  59 3.02  71 3.04
                           223 3.09 306 3.14 155 3.26 440 3.39 431 3.39 443 3.47 456 3.49 403 3.68
 357  0.836  0.500  0.503- 137 2.59  73 2.67  77 2.74 168 2.75 232 2.76 179 2.78 231 2.78  89 2.84
                           251 2.84 170 2.84 310 2.88 263 2.93 450 3.34 448 3.41 459 3.41 402 3.42
 358  1.000  0.500  0.507-  94 2.62  91 2.66 254 2.68  77 2.69  73 2.70 241 2.83 242 2.85 232 2.89
                           308 2.90 179 2.91 228 2.91 262 2.99 399 3.40 459 3.40 444 3.41 451 3.41
 359  0.501  0.500  0.500- 118 2.61 236 2.69 167 2.71 318 2.73  61 2.75  64 2.77 190 2.78 258 2.79
                           166 2.80 225 2.83  78 2.93  76 3.27 414 3.40 419 3.43 405 3.44 426 3.45
 360  0.667  0.248  0.502- 102 2.64 246 2.72  57 2.74  60 2.75 238 2.75  88 2.75 279 2.80 116 2.82
                           268 2.86 256 2.86  95 2.88 213 2.91 433 3.40 401 3.42 419 3.42 435 3.44
 361  0.333  0.001  0.506-  97 2.59  75 2.68 309 2.68 223 2.71  65 2.74 243 2.78 245 2.84 303 2.84
                           221 2.84 218 2.90 222 2.92 264 2.97 454 3.33 408 3.38 453 3.39 409 3.40
 362  0.330  0.248  0.503- 169 2.64 111 2.71 153 2.72 159 2.74 219 2.74 243 2.74 320 2.78 316 2.82
                           235 2.87 278 2.88 214 2.91  63 2.99 437 3.33 453 3.36 446 3.42 395 3.45
 363  0.668  0.500  0.501- 231 2.61 213 2.71 251 2.71 105 2.73 263 2.76 236 2.77 190 2.79 269 2.81
                           189 2.81  61 2.86  89 2.87  64 3.03 438 3.35 411 3.41 448 3.42 402 3.42
 364  0.833  0.625  0.407- 212 2.76 295 2.79 204 2.79 165 2.79 192 2.79 310 2.79 315 2.79 232 2.79
                           168 2.80 263 2.80 220 2.88 411 3.42 421 3.42 406 3.42 400 3.42 402 3.44
 365  0.164  0.751  0.504-  90 2.64  66 2.66 178 2.72 108 2.75 304 2.77 226 2.82 287 2.83 173 2.84
                            87 2.88 237 2.89 273 2.90  81 2.90 436 3.34 457 3.37 444 3.43 452 3.45
 366  0.666  0.000  0.506- 103 2.58 181 2.65  71 2.68  58 2.69  82 2.77 128 2.81 246 2.82 217 2.84
                            86 2.87 191 2.88 282 2.90 267 2.96 427 3.37 447 3.38 401 3.38 403 3.38
 367  0.501  0.753  0.504-  68 2.67 117 2.68 155 2.69  74 2.71 240 2.74 281 2.78 306 2.79  59 2.80
                           284 2.85 276 2.90 224 2.91 167 2.95 456 3.36 403 3.37 409 3.42 426 3.42
 368  0.665  0.752  0.502- 257 2.65 104 2.67 240 2.73 128 2.73  59 2.75 220 2.78 189 2.81 284 2.83
                           250 2.83 288 2.85  74 2.86  83 3.02 394 3.35 403 3.38 426 3.38 413 3.45
 369  0.167  0.375  0.407- 172 2.72 228 2.78 210 2.79 314 2.79 293 2.79 119 2.79 272 2.79 286 2.79
                           301 2.80 320 2.81 247 2.85 395 3.42 418 3.42 397 3.42 393 3.42 446 3.44
 370  0.326  0.374  0.593- 133 2.59 109 2.65 159 2.65 177 2.66 111 2.66 214 2.70  63 2.73 100 2.74
                           147 2.92 118 3.12 446 3.29   8 3.39 432 3.40 430 3.41 461 3.42 425 3.49
 371  0.001  0.123  0.620- 121 2.50 131 2.50 136 2.51 176 2.53  98 2.89  99 2.94  69 3.19 216 3.23
                            92 3.30  72 3.32 439 3.43 460 3.43 463 3.43 442 3.44 445 3.90 340 3.93
 372  0.836  0.249  0.503- 140 2.65  72 2.67 253 2.71 188 2.76 171 2.77 170 2.78 234 2.78  57 2.80
                            60 2.86 270 2.87 116 2.92 279 2.93 433 3.32 404 3.38 399 3.42 412 3.44
 373  0.667  0.375  0.407- 256 2.74 279 2.75 205 2.79 296 2.79 197 2.79 307 2.79 269 2.79 268 2.79
                           251 2.84 236 2.87 213 2.89 411 3.42 449 3.42 415 3.42 414 3.42 419 3.46
 374  0.331  0.499  0.501-  62 2.63 247 2.70 214 2.70 100 2.70 318 2.74 285 2.76 265 2.81 109 2.82
                           215 2.83 118 2.84 225 2.84  78 3.05 461 3.35 418 3.41 452 3.42 425 3.44
 375  0.000  0.875  0.407- 244 2.78 142 2.79 313 2.79 200 2.79 312 2.79 280 2.79 260 2.79 252 2.79
                           227 2.80 230 2.80 304 2.81 400 3.42 396 3.42 410 3.42 398 3.42 458 3.58
 376  0.166  0.001  0.507- 106 2.57  80 2.67  69 2.71 309 2.72  75 2.73 180 2.76 317 2.85 178 2.86
                           221 2.88 227 2.89 218 2.92 271 2.99 408 3.37 445 3.39 453 3.39 457 3.44
 377  0.334  0.751  0.502- 101 2.68 306 2.71 281 2.74 245 2.75 287 2.75 237 2.76  87 2.77 215 2.80
                           266 2.84 224 2.84 117 2.88  81 2.93 436 3.37 456 3.41 455 3.41 409 3.42
 378  0.500  0.999  0.506- 112 2.57  58 2.67  71 2.71 223 2.71  65 2.77 155 2.81  86 2.84  93 2.84
                           303 2.85 222 2.87 191 2.89 274 2.96 409 3.37 454 3.39 403 3.39 401 3.39
 379  0.166  0.248  0.506- 107 2.61  92 2.64  67 2.68 159 2.72 169 2.73 180 2.77 219 2.85 172 2.87
                           229 2.87 301 2.89 320 2.96 286 2.98 446 3.37 453 3.39 445 3.39 451 3.46
 380  0.000  0.625  0.407- 242 2.72 165 2.79 192 2.79 248 2.79 319 2.79 262 2.79 280 2.79 226 2.80
                           212 2.80 308 2.81 232 2.81 406 3.42 400 3.42 397 3.42 396 3.42 444 3.53
 381  0.667  0.125  0.407- 282 2.75 191 2.78 297 2.79 206 2.79 255 2.79 198 2.79 267 2.79 268 2.79
                           246 2.80  57 2.86 238 2.86 422 3.42 449 3.42 417 3.42 415 3.42 447 3.52
 382  0.834  1.000  0.506- 115 2.57  84 2.65 181 2.69 216 2.71 171 2.79  82 2.81 113 2.81 233 2.86
                           217 2.87 252 2.87 282 2.94 283 2.98 427 3.35 447 3.37 458 3.41 404 3.42
 383  0.333  0.375  0.407- 320 2.74 225 2.77 209 2.79 299 2.79 210 2.79 293 2.79 278 2.79 265 2.79
                           247 2.81 316 2.84 214 2.88 405 3.42 416 3.42 395 3.42 418 3.42 425 3.43
 384  0.333  0.875  0.407- 245 2.77 218 2.78 298 2.79 292 2.79 207 2.79 199 2.79 266 2.79 264 2.79
                           222 2.79 287 2.82 281 2.84 423 3.42 424 3.42 428 3.42 420 3.42 408 3.49
 385  0.333  0.625  0.407- 285 2.74 224 2.79 305 2.79 208 2.79 290 2.79 201 2.79 265 2.79 266 2.79
                           237 2.80 318 2.88 215 2.90 405 3.42 423 3.42 418 3.42 424 3.42 455 3.44
 386  0.833  0.875  0.407- 113 2.77 250 2.78 252 2.78 300 2.79 203 2.79 142 2.79 200 2.79 315 2.79
                           283 2.79 230 2.80 217 2.83 421 3.42 400 3.42 422 3.42 410 3.42 427 3.48
 387  0.667  0.625  0.407- 263 2.74 190 2.79 295 2.79 204 2.79 291 2.79 196 2.79 269 2.79 288 2.79
                           284 2.80 220 2.85 189 2.88 411 3.42 421 3.42 414 3.42 413 3.42 426 3.43
 388  0.000  1.000  0.507-  98 2.59  80 2.69  69 2.70  84 2.70 216 2.71 244 2.79 239 2.80 317 2.88
                           233 2.89 252 2.91 227 2.91 260 2.99 458 3.40 404 3.40 457 3.40 445 3.41
 389  0.001  0.250  0.506-  99 2.58  92 2.66  72 2.69 253 2.74  67 2.76 241 2.77 239 2.79 301 2.86
                           229 2.89 234 2.91 188 2.93 261 2.98 451 3.38 399 3.39 445 3.40 404 3.41
 390  1.000  0.751  0.507-  96 2.58  79 2.70  90 2.71  70 2.72  66 2.73 244 2.78 242 2.78 304 2.87
                           230 2.88 226 2.94 212 2.94 280 2.99 457 3.39 444 3.39 458 3.39 459 3.40
 391  0.501  0.248  0.502- 186 2.66  88 2.71 238 2.72  93 2.73 153 2.73  95 2.76 316 2.81 235 2.82
                           166 2.82 275 2.86 256 2.88  63 2.98 437 3.37 401 3.39 419 3.41 425 3.46
 392  0.333  0.125  0.407- 243 2.75 302 2.79 311 2.79 294 2.79 202 2.79 264 2.79 278 2.79 235 2.79
                           221 2.80 219 2.82 303 2.83 428 3.42 416 3.42 420 3.42 395 3.42 454 3.48
 393  0.083  0.250  0.407- 119 1.97 259 1.97 261 1.97 286 1.97 301 1.97 229 1.98 354 3.42 369 3.42
                           355 3.42 335 3.42 389 3.56 379 3.57
 394  0.752  0.753  0.591- 257 1.83 139 1.85  83 1.96 124 1.98 104 2.07 162 2.40  23 3.12 323 3.30
                           368 3.35 325 3.47 342 3.48 329 3.51 343 3.57
 395  0.250  0.250  0.407- 219 1.97 293 1.97 202 1.97 286 1.97 278 1.97 320 2.01 369 3.42 355 3.42
                           383 3.42 392 3.42 362 3.45 379 3.58
 396  0.083  0.750  0.407- 313 1.97 319 1.97 273 1.97 280 1.97 226 1.97 304 1.98 321 3.42 375 3.42
                           337 3.42 380 3.42 365 3.47 390 3.59
 397  0.083  0.500  0.407- 228 1.97 248 1.97 314 1.97 272 1.97 262 1.97 308 1.98 337 3.42 354 3.42
                           369 3.42 380 3.42 326 3.42 358 3.59
 398  0.083  0.000  0.407- 312 1.97 211 1.97 271 1.97 260 1.97 317 1.98 227 1.99 335 3.42 355 3.42
                           321 3.42 375 3.42 376 3.57 388 3.58
 399  0.919  0.374  0.506- 253 1.85  73 1.85 241 1.94 170 2.05 234 2.09 179 2.10 389 3.39 358 3.40
                           372 3.42 357 3.42 324 3.49 354 3.54 333 3.59
 400  0.917  0.750  0.407- 142 1.97 192 1.97 280 1.97 315 1.97 212 1.98 230 1.98 375 3.42 380 3.42
                           386 3.42 364 3.42 323 3.44 390 3.58
 401  0.583  0.123  0.505-  58 1.84  95 1.95 246 1.96  93 1.99 191 2.02 238 2.09 366 3.38 391 3.39
                           378 3.39 360 3.42 322 3.53 381 3.53 339 3.63 331 3.66
 402  0.753  0.625  0.502- 168 1.89 220 1.96  83 1.97 231 1.97 263 1.99 189 2.06 342 3.40 357 3.42
                           363 3.42 364 3.44 323 3.46 368 3.51 387 3.51 329 3.68
 403  0.584  0.876  0.506-  71 1.84  59 1.92 128 1.97 155 1.99  86 2.06 240 2.10 367 3.37 368 3.38
                           366 3.38 378 3.39 351 3.55 327 3.57 343 3.61 356 3.68
 404  0.918  0.125  0.506-  72 1.85 216 1.85 239 1.96 171 2.02 233 2.10 188 2.11 372 3.38 388 3.40
                           389 3.41 382 3.42 335 3.55 332 3.59 340 3.74 371 3.93
[...]
  350              map_forward                          19.493605                   3966   6
  351                map_gather                            0.271768                 2002   7
  352                m_alltoallv_z                        17.993500                 2002   7
  353                map_scatter                           1.189672                 2002   7
  354              map_backward                         16.532930                   3928   6
  355                map_gather                            0.981108                 1964   7
  356                m_alltoallv_z                        14.974567                 1964   7
  357                map_scatter                           0.539569                 1964   7
  358        ggaall_grid                          27.548251                          339   3
  359        m_sumb_d                              0.437652                         1752   3
  360        fewald                                0.027162                           38   3
  361          rsp                                   0.024671                         38   4
  362          rcp                                   0.002037                         38   4
  363        pothar                                0.032640                           19   3
  364          m_sumb_d                              0.022556                         19   4
  365        m_bcast_d                             0.072927                           19   3
  366      potlok_metagga                        0.000021                             19   2
  367      set_dd_magatom                        0.000010                             10   2
  368      set_dd_paw                            0.260495                             19   2
  369        set_rsgf_all                          0.000043                           19   3
  370        m_sumb_d                              0.255525                          133   3
  371      m_bcast_d                             0.003202                             20   2
  372      wavpre_noio                           2.538702                              9   2
  373        stufak                                2.392464                            9   3
  374      eddiag                              202.475302                              9   2
  375        overl                                 0.012200                            9   3
  376        redis_proj                            3.054686                           27   3
  377          m_alltoall_d                          3.043473                       3780   4
  378        fftwav_mpi                            5.135705                         1260   3
  379          fft3d_mpi                             4.609956                       1260   4
  380            fftbrc_mpi                            3.932562                     1260   5
  381              fftbas_plan_mpi                       3.928327                   1260   6
  382                dfftw_execute                         1.914065                 3780   7
  383                map_forward                           1.262137                 2520   7
  384                  map_gather                            0.116889               1260   8
  385                  m_alltoallv_z                         0.549581               1260   8
  386                  map_scatter                           0.236362               1260   8
  387        hamilt_local                          4.467326                         1260   3
  388          vhamil                                0.592662                       1260   4
  389          kinhamil                              3.863764                       1260   4
  390            fftext_mpi                            3.819524                     1260   5
  391              fft3d_mpi                             3.733323                   1260   6
  392                fftbrc_mpi                            3.147198                 1260   7
  393                  fftbas_plan_mpi                       3.142862               1260   8
  394                    dfftw_execute                         1.643220             3780   9
  395                    map_backward                          0.753697             2520   9
  396                      map_gather                            0.203073           1260  10
  397                      m_alltoallv_z                         0.357118           1260  10
  398                      map_scatter                           0.172703           1260  10
  399        redis_pw                              3.631958                         1269   3
  400          m_alltoall_d                          3.534320                       3780   4
  401        orth1                                 2.540588                          630   3
  402        m_sumb_d                              2.082461                            9   3
  403        shift_bands_between_low_high          0.000011                            9   3
  404        lincom                                2.726660                            9   3
  405      set_charge                            6.156055                              9   2
  406        soft_charge                           5.691075                            9   3
  407          fftwav_mpi                            4.145715                       1062   4
  408            fft3d_mpi                             3.730232                     1062   5
  409              fftbrc_mpi                            3.181368                   1062   6
  410                fftbas_plan_mpi                       3.177916                 1062   7
  411                  dfftw_execute                         1.605006               3186   8
  412                  map_forward                           0.903344               2124   8
  413                    map_gather                            0.094060             1062   9
  414                    m_alltoallv_z                         0.318747             1062   9
  415                    map_scatter                           0.198843             1062   9
  416          pw_charge                             0.479097                       1062   4
  417          m_sumb_d                              0.433172                          9   4
  418          fft_gq                                0.611994                          9   4
  419            fft3d_mpi                             0.610548                        9   5
  420              fftbrc_mpi                            0.608089                      9   6
  421                fftbas_plan_mpi                       0.608066                    9   7
  422                  dfftw_execute                         0.007766                 27   8
  423                  map_backward                          0.594722                 18   8
  424                    map_gather                            0.003853               18   9
  425                    m_alltoallv_z                         0.589183               18   9
  426                    map_scatter                           0.001443               18   9
  427        depsum                                0.016596                            9   3
  428          m_sumb_d                              0.006443                          9   4
  429        augmentation_charge                   0.446428                            9   3
  430          m_sumb_d                              0.022445                          9   4
  431          fft3d_mpi                             0.082517                          9   4
  432            fftbrc_mpi                            0.080658                        9   5
  433              fftbas_plan_mpi                       0.080550                      9   6
  434                dfftw_execute                         0.010651                   27   7
  435                map_backward                          0.062747                   18   7
  436                  map_gather                            0.003922                  9   8
  437                  m_alltoallv_z                         0.056251                  9   8
  438                  map_scatter                           0.002355                  9   8
 
 Flat profile
 ============
 
             routine name                   CPU           calls
 ---------------------------------------------------------------
 edwav                               11817.174508         991
 potlok                               1813.855081        1011
 m_alltoall_d                         1019.988701     2390066
 m_sumb_d                              890.005264      996229
 dfftw_execute                         821.197027     1716369
 lincom                                774.064600        3007
 m_alltoallv_z                         737.347141      574135
 orth1                                 488.674682      147814
 fftbas_plan_mpi                       353.053297      572123
 choleski                              346.648918        1001
 eddiag                                339.765992         519
 fft3d_mpi                             267.709068      572123
 ggaall_grid                           227.815831        1341
 fftwav_mpi                            144.185516      350340
 eccp                                  137.041560      276920
 map_scatter                           120.464797      574135
 racc0                                 109.988611       71298
 rpro1                                 102.176438       70598
 map_forward                           100.832792      778774
 eddav                                  91.546398           5
 total_time                             86.970950           1
 map_gather                             79.437559      574135
 pw_charge                              52.736922      117584
 augmentation_charge                    39.174758        1001
 setdij_                                38.021137        1272
 vhamil                                 35.268173       73958
 w1_dscal                               23.163709       68740
 force_and_stress                       18.037616          10
 redis_pw                               16.491456      287116
 orthch                                 14.838259        1001
 rpromu                                 13.254756        4550
 m_bcast_z                              11.484875        2380
 fftext_mpi                             10.598053      142698
 ggemm                                   7.774701        3258
 redis_proj                              7.510666      226014
 rpromu_gemm                             7.030661     1046500
 m_bcast_d                               5.318947        8725
 rspher_all                              4.699714         131
 overl                                   4.438930       75158
 forloc                                  4.147510          10
 forhar                                  4.096088          10
 elmin_all                               3.856575          10
 lapack                                  3.852376        2558
 map_backward                            3.220255      365472
 stufak                                  2.655936          10
 soft_charge                             2.538665        1001
 kinhamil                                2.482855       73958
 fftbrc_mpi                              1.765097      572123
 densta                                  1.636528        1012
 rsp                                     1.436748        2032
 depsum                                  1.137856        1001
 hamilt_local                            0.565874       71400
 pothar                                  0.529781        1011
 set_dd_paw                              0.460173        1021
 w1_copy                                 0.289202        7674
 set_charge                              0.249866        1001
 strnlr                                  0.212945          10
 rpro_isp                                0.187971         130
 fft_gq                                  0.165454        1001
 wavpre_noio                             0.146238           9
 rcp                                     0.109106        2032
 apply_precond                           0.098586        1858
 overl1                                  0.094195        2558
 fewald                                  0.074744        2032
 strehar                                 0.069327          10
 setup_precond                           0.060802         700
 strelo                                  0.060166          10
 fornlr                                  0.059597          10
 inisym                                  0.056873           1
 strkin                                  0.052175          10
 hamiltmu                                0.038959        2558
 raccmu_                                 0.031578        2558
 newband                                 0.030731        2563
 w1_projall                              0.010308        1858
 redis_pw_all                            0.006761         991
 redis_pw_over_bands                     0.004354        1010
 truncate_high_frequency_w1              0.003383        3258
 set_rsgf_all                            0.002648        1021
 fordep                                  0.002360          10
 potlok_metagga                          0.001469        1011
 brgrid                                  0.000691           1
 phaser                                  0.000547         626
 posmap                                  0.000270           2
 crpa_reader                             0.000255           1
 proall                                  0.000138          10
 rotate_active_occupied_orbital          0.000088          10
 set_dd_magatom                          0.000040          20
 vectorpot                               0.000031           1
 shift_bands_between_low_high            0.000025          19
 ---------------------------------------------------------------
  summed up times    21216.2922639847     
 
 Accumulative profile
 ====================
 
             routine name                   CPU           calls
 ---------------------------------------------------------------
 total_time                          21216.292264           1
 elmin_all                           20628.649467          10
 edwav                               16522.408031         991
 potlok                               2839.329049        1011
 fft3d_mpi                            2485.027031      572123
 fftbrc_mpi                           2217.317963      572123
 fftbas_plan_mpi                      2215.552866      572123
 fftwav_mpi                           1389.988086      350340
 orthch                               1244.753299        1001
 m_alltoall_d                         1019.988701     2390066
 m_sumb_d                              890.005264      996229
 dfftw_execute                         821.197027     1716369
 lincom                                774.064600        3007
 m_alltoallv_z                         737.347141      574135
 eddiag                                706.461964         519
 map_forward                           699.117901      778774
 set_charge                            604.683685        1001
 redis_proj                            553.946124      226014
 soft_charge                           548.820982        1001
 redis_pw                              490.044699      287116
 orth1                                 488.674682      147814
 fftext_mpi                            436.606240      142698
 choleski                              346.648918        1001
 map_backward                          342.184642      365472
 hamilt_local                          254.569964       71400
 kinhamil                              227.944460       73958
 ggaall_grid                           227.815831        1341
 eddav                                 174.820974           5
 eccp                                  154.304839      276920
 racc0                                 142.256645       71298
 force_and_stress                      140.191956          10
 map_scatter                           120.464797      574135
 rpro1                                 118.885747       70598
 rpro_isp                               94.372244         130
 map_gather                             79.437559      574135
 redis_pw_over_bands                    78.400709        1010
 redis_pw_all                           78.396355         991
 strnlr                                 69.486517          10
 augmentation_charge                    53.314867        1001
 pw_charge                              52.736922      117584
 setdij_                                51.820839        1272
 densta                                 44.443842        1012
 vhamil                                 35.268173       73958
 fornlr                                 23.228479          10
 w1_dscal                               23.163709       68740
 rpromu                                 22.927598        4550
 hamiltmu                               14.037438        2558
 set_dd_paw                             13.547170        1021
 m_bcast_z                              11.484875        2380
 ggemm                                   7.774701        3258
 proall                                  7.324009          10
 rpromu_gemm                             7.030661     1046500
 fft_gq                                  5.949089        1001
 m_bcast_d                               5.318947        8725
 raccmu_                                 4.789936        2558
 rspher_all                              4.699714         131
 overl                                   4.438930       75158
 newband                                 4.360901        2563
 forloc                                  4.153280          10
 forhar                                  4.117608          10
 lapack                                  3.852376        2558
 w1_projall                              3.112950        1858
 stufak                                  2.655936          10
 wavpre_noio                             2.538702           9
 fordep                                  2.417280          10
 depsum                                  2.297971        1001
 fewald                                  1.994408        2032
 pothar                                  1.976251        1011
 rsp                                     1.436748        2032
 w1_copy                                 0.289202        7674
 rcp                                     0.109106        2032
 apply_precond                           0.098586        1858
 overl1                                  0.094195        2558
 setup_precond                           0.088210         700
 strelo                                  0.087603          10
 strehar                                 0.072934          10
 strkin                                  0.061326          10
 inisym                                  0.057143           1
 truncate_high_frequency_w1              0.003383        3258
 set_rsgf_all                            0.002648        1021
 potlok_metagga                          0.001469        1011
 brgrid                                  0.000691           1
 phaser                                  0.000547         626
 posmap                                  0.000270           2
 crpa_reader                             0.000255           1
 rotate_active_occupied_orbital          0.000088          10
 set_dd_magatom                          0.000040          20
 vectorpot                               0.000031           1
 shift_bands_between_low_high            0.000025          19
 ---------------------------------------------------------------
 
Profiling took  14.716585  4.864005  0.007624  0.006783 seconds
Profiling took  17.376135 seconds
