 vasp.6.3.2 27Jun22 (build Jul 15 2023 01:30:30) gamma-only                     
  
 executed on           IFC15_impi date 2023.09.06  02:42:11
 running   64 mpi-ranks, with    1 threads/rank
 distrk:  each k-point on   64 cores,    1 groups
 distr:  one band on NCORE=   1 cores,   64 groups


--------------------------------------------------------------------------------------------------------


 INCAR:
   ENCUT = 500.000000
   SIGMA = 0.010000
   EDIFF = 1.00e-05
   ALGO = A
   ISMEAR = 0
   NELM = 200
   NSW = 500
   LCHARG = .TRUE.
   LWAVE = .TRUE.
   LREAL = Auto
   IBRION = 2
   EDIFFG = -0.05
   GGA = BF
   LUSE_VDW = .TRUE.
   ZAB_VDW = -1.8867
   LBEEFENS = .TRUE.

 POTCAR:    PAW_PBE C 08Apr2002                   
 POTCAR:    PAW_PBE H 15Jun2001                   
 -----------------------------------------------------------------------------
|                                                                             |
|               ----> ADVICE to this user running VASP <----                  |
|                                                                             |
|     You have switched on vdW-DFT.                                           |
|     This routine was written and supplied by Jiri Klimes. We recommend      |
|     that you carefully read and cite the following publications:            |
|       J. Klimes, D.R. Bowler, A. Michelides                                 |
|          J. Phys.: Cond Matt. 22 022201 (2010)                              |
|       J. Klimes, D.R. Bowler, A. Michelides                                 |
|          Phys. Rev. B. 83, 195131 (2011)                                    |
|     and references therein.                                                 |
|                                                                             |
 -----------------------------------------------------------------------------

 POTCAR:    PAW_PBE C 08Apr2002                   
   SHA256 =  253f7b50bb8d59471dbedb8285d89021f4a42ed1a2c5d38a03a736e69125dd95 C/POTCAR              
   COPYR  = (c) Copyright 08Apr2002 Georg Kresse                                                    
   COPYR  = This file is part of the software VASP. Any use, copying, and all other rights are regul
   COPYR  = If you do not have a valid VASP license, you may not use, copy or distribute this file. 
   VRHFIN =C: s2p2                                                                                  
   LEXCH  = PE                                                                                      
   EATOM  =   147.1560 eV,   10.8157 Ry                                                             
                                                                                                    
   TITEL  = PAW_PBE C 08Apr2002                                                                     
   LULTRA =        F    use ultrasoft PP ?                                                          
   IUNSCR =        1    unscreen: 0-lin 1-nonlin 2-no                                               
   RPACOR =    1.200    partial core radius                                                         
   POMASS =   12.011; ZVAL   =    4.000    mass and valenz                                          
   RCORE  =    1.500    outmost cutoff radius                                                       
   RWIGS  =    1.630; RWIGS  =    0.863    wigner-seitz radius (au A)                               
   ENMAX  =  400.000; ENMIN  =  300.000 eV                                                          
   ICORE  =        2    local potential                                                             
   LCOR   =        T    correct aug charges                                                         
   LPAW   =        T    paw PP                                                                      
   EAUG   =  644.873                                                                                
   DEXC   =    0.000                                                                                
   RMAX   =    1.529    core radius for proj-oper                                                   
   RAUG   =    1.300    factor for augmentation sphere                                              
   RDEP   =    1.501    radius for radial grids                                                     
   RDEPT  =    1.300    core radius for aug-charge                                                  
                                                                                                    
   Atomic configuration                                                                             
    4 entries                                                                                       
     n  l   j            E        occ.                                                              
     1  0  0.50      -273.3789   2.0000                                                             
     2  0  0.50       -13.7508   2.0000                                                             
     2  1  0.50        -5.2854   2.0000                                                             
     3  2  1.50        -5.4423   0.0000                                                             
   Description                                                                                      
     l       E           TYP  RCUT    TYP  RCUT                                                     
     0    -13.7508458     23  1.200                                                                 
     0     -8.2022199     23  1.200                                                                 
     1     -5.2854383     23  1.500                                                                 
     1     34.0145650     23  1.500                                                                 
     2     -5.4423304      7  1.500                                                                 
  local pseudopotential read in
  partial core-charges read in
  partial kinetic energy density read in
  atomic valenz-charges read in
  non local Contribution for L=           0  read in
    real space projection operators read in
  non local Contribution for L=           0  read in
    real space projection operators read in
  non local Contribution for L=           1  read in
    real space projection operators read in
  non local Contribution for L=           1  read in
    real space projection operators read in
    PAW grid and wavefunctions read in
 
   number of l-projection  operators is LMAX  =           4
   number of lm-projection operators is LMMAX =           8
 
 POTCAR:    PAW_PBE H 15Jun2001                   
   SHA256 =  030f79b5d3ab3cf0e668861823c8fb652ff669f3e15e46930bd03bfd63a607b6 H/POTCAR              
   COPYR  = (c) Copyright 15Jun2001 Georg Kresse                                                    
   COPYR  = This file is part of the software VASP. Any use, copying, and all other rights are regul
   COPYR  = If you do not have a valid VASP license, you may not use, copy or distribute this file. 
   VRHFIN =H: ultrasoft test                                                                        
   LEXCH  = PE                                                                                      
   EATOM  =    12.4884 eV,    0.9179 Ry                                                             
                                                                                                    
   TITEL  = PAW_PBE H 15Jun2001                                                                     
   LULTRA =        F    use ultrasoft PP ?                                                          
   IUNSCR =        0    unscreen: 0-lin 1-nonlin 2-no                                               
   RPACOR =    0.000    partial core radius                                                         
   POMASS =    1.000; ZVAL   =    1.000    mass and valenz                                          
   RCORE  =    1.100    outmost cutoff radius                                                       
   RWIGS  =    0.700; RWIGS  =    0.370    wigner-seitz radius (au A)                               
   ENMAX  =  250.000; ENMIN  =  200.000 eV                                                          
   RCLOC  =    0.701    cutoff for local pot                                                        
   LCOR   =        T    correct aug charges                                                         
   LPAW   =        T    paw PP                                                                      
   EAUG   =  400.000                                                                                
   RMAX   =    1.123    core radius for proj-oper                                                   
   RAUG   =    1.200    factor for augmentation sphere                                              
   RDEP   =    1.112    radius for radial grids                                                     
   RDEPT  =    0.926    core radius for aug-charge                                                  
                                                                                                    
   Atomic configuration                                                                             
    2 entries                                                                                       
     n  l   j            E        occ.                                                              
     1  0  0.50        -6.4927   1.0000                                                             
     2  1  0.50        -3.4015   0.0000                                                             
   Description                                                                                      
     l       E           TYP  RCUT    TYP  RCUT                                                     
     0     -6.4927494     23  1.100                                                                 
     0      6.8029130     23  1.100                                                                 
     1     -4.0817478     23  1.100                                                                 
  local pseudopotential read in
  atomic valenz-charges read in
  non local Contribution for L=           0  read in
    real space projection operators read in
  non local Contribution for L=           0  read in
    real space projection operators read in
  non local Contribution for L=           1  read in
    real space projection operators read in
    PAW grid and wavefunctions read in
 
   number of l-projection  operators is LMAX  =           3
   number of lm-projection operators is LMMAX =           5
 
 -----------------------------------------------------------------------------
|                                                                             |
|               ----> ADVICE to this user running VASP <----                  |
|                                                                             |
|     You have a (more or less) 'small supercell' and for smaller cells       |
|     it is recommended to use the reciprocal-space projection scheme!        |
|     The real-space optimization is not efficient for small cells and it     |
|     is also less accurate ...                                               |
|     Therefore, set LREAL=.FALSE. in the INCAR file.                         |
|                                                                             |
 -----------------------------------------------------------------------------

 Optimization of the real space projectors (new method)

 maximal supplied QI-value         = 25.13
 optimisation between [QCUT,QGAM] = [ 11.31, 22.87] = [ 35.82,146.48] Ry 
 Optimized for a Real-space Cutoff    1.00 Angstroem

   l    n(q)    QCUT    max X(q) W(low)/X(q) W(high)/X(q)  e(spline) 
   0      7    11.310   115.676    0.43E-03    0.13E-02    0.19E-06
   0      7    11.310    87.132    0.43E-03    0.13E-02    0.18E-06
   1      6    11.310     4.429    0.42E-03    0.74E-03    0.11E-06
   1      6    11.310     2.733    0.34E-03    0.55E-03    0.92E-07
 Optimization of the real space projectors (new method)

 maximal supplied QI-value         = 34.20
 optimisation between [QCUT,QGAM] = [ 11.29, 22.57] = [ 35.68,142.71] Ry 
 Optimized for a Real-space Cutoff    1.16 Angstroem

   l    n(q)    QCUT    max X(q) W(low)/X(q) W(high)/X(q)  e(spline) 
   0      8    11.287    19.460    0.40E-03    0.73E-03    0.16E-06
   0      8    11.287    12.209    0.38E-03    0.70E-03    0.15E-06
   1      7    11.287     4.655    0.22E-03    0.25E-04    0.22E-06
 -----------------------------------------------------------------------------
|                                                                             |
|               ----> ADVICE to this user running VASP <----                  |
|                                                                             |
|     You enforced a specific xc type in the INCAR file but a different       |
|     type was found in the POTCAR file.                                      |
|     I HOPE YOU KNOW WHAT YOU ARE DOING!                                     |
|                                                                             |
 -----------------------------------------------------------------------------

  PAW_PBE C 08Apr2002                   :
 energy of atom  1       EATOM= -147.1560
 kinetic energy error for atom=    0.0076 (will be added to EATOM!!)
  PAW_PBE H 15Jun2001                   :
 energy of atom  2       EATOM=  -12.4884
 kinetic energy error for atom=    0.0020 (will be added to EATOM!!)
 
 
 POSCAR:  C  H
  positions in cartesian coordinates
  No initial velocities read in
 exchange correlation table for  LEXCH =       17
   RHO(1)=    0.500       N(1)  =     2000
   RHO(2)=  100.500       N(2)  =     4000
 


--------------------------------------------------------------------------------------------------------


 ion  position               nearest neighbor table
   1  0.500  0.500  0.500-   3 1.09   2 1.09   4 1.09   5 1.09
   2  0.523  0.536  0.517-   1 1.09
   3  0.529  0.464  0.492-   1 1.09
   4  0.467  0.483  0.522-   1 1.09
   5  0.481  0.517  0.470-   1 1.09
 
  LATTYP: Found a simple orthorhombic cell.
 ALAT       =    22.3170261383
 B/A-ratio  =     1.0606601451
 C/A-ratio  =     1.3442651281
  
  Lattice vectors:
  
 A1 = (   0.0000000000, -22.3170261383,   0.0000000000)
 A2 = (  23.6707801819,   0.0000000000,   0.0000000000)
 A3 = (   0.0000000000,   0.0000000000,  30.0000000000)


Analysis of symmetry for initial positions (statically):
=====================================================================
 Subroutine PRICEL returns:
 Original cell was already a primitive cell.
 

 Routine SETGRP: Setting up the symmetry group for a 
 simple orthorhombic supercell.


 Subroutine GETGRP returns: Found  1 space group operations
 (whereof  1 operations were pure point group operations)
 out of a pool of  8 trial point group operations.


The static configuration has the point symmetry C_1 .


Analysis of symmetry for dynamics (positions and initial velocities):
=====================================================================
 Subroutine PRICEL returns:
 Original cell was already a primitive cell.
 

 Routine SETGRP: Setting up the symmetry group for a 
 simple orthorhombic supercell.


 Subroutine GETGRP returns: Found  1 space group operations
 (whereof  1 operations were pure point group operations)
 out of a pool of  8 trial point group operations.


The dynamic configuration has the point symmetry C_1 .


 Subroutine INISYM returns: Found  1 space group operations
 (whereof  1 operations are pure point group operations),
 and found     1 'primitive' translations


----------------------------------------------------------------------------------------

                                     Primitive cell                                     

  volume of cell :   15847.8426

  direct lattice vectors                    reciprocal lattice vectors
    23.670780182  0.000000000  0.000000000     0.042246178  0.000000000  0.000000000
     0.000000000 22.317026138  0.000000000     0.000000000  0.044808838  0.000000000
     0.000000000  0.000000000 30.000000000     0.000000000  0.000000000  0.033333333

  length of vectors
    23.670780182 22.317026138 30.000000000     0.042246178  0.044808838  0.033333333

  position of ions in fractional coordinates (direct lattice)
     0.500000000  0.500000000  0.500000000
     0.523408607  0.535829147  0.516550000
     0.528866814  0.463552491  0.491546667
     0.467124024  0.483263899  0.522306667
     0.480596330  0.517358944  0.469596667

  ion indices of the primitive-cell ions
   primitive index   ion index
                 1           1
                 2           2
                 3           3
                 4           4
                 5           5

----------------------------------------------------------------------------------------

 
 
 KPOINTS: KPOINTS created by Atomic Simulation Env

Automatic generation of k-mesh.
 Grid dimensions read from file:
 generate k-points for:    1    1    1

 Generating k-lattice:

  Cartesian coordinates                     Fractional coordinates (reciprocal lattice)
     0.042246178  0.000000000  0.000000000     1.000000000  0.000000000  0.000000000
     0.000000000  0.044808838  0.000000000     0.000000000  1.000000000  0.000000000
     0.000000000  0.000000000  0.033333333     0.000000000  0.000000000  1.000000000

  Length of vectors
     0.042246178  0.044808838  0.033333333

  Shift w.r.t. Gamma in fractional coordinates (k-lattice)
     0.000000000  0.000000000  0.000000000

 
 Subroutine IBZKPT returns following result:
 ===========================================
 
 Found      1 irreducible k-points:
 
 Following reciprocal coordinates:
            Coordinates               Weight
  0.000000  0.000000  0.000000      1.000000
 
 Following cartesian coordinates:
            Coordinates               Weight
  0.000000  0.000000  0.000000      1.000000
 


--------------------------------------------------------------------------------------------------------




 Dimension of arrays:
   k-points           NKPTS =      1   k-points in BZ     NKDIM =      1   number of bands    NBANDS=     64
   number of dos      NEDOS =    301   number of ions     NIONS =      5
   non local maximal  LDIM  =      4   non local SUM 2l+1 LMDIM =      8
   total plane-waves  NPLWV = ******
   max r-space proj   IRMAX =   1285   max aug-charges    IRDMAX=   2406
   dimension x,y,z NGX =   140 NGY =  126 NGZ =  168
   dimension x,y,z NGXF=   280 NGYF=  252 NGZF=  336
   support grid    NGXF=   280 NGYF=  252 NGZF=  336
   ions per type =               1   4
   NGX,Y,Z   is equivalent  to a cutoff of   9.83,  9.39,  9.31 a.u.
   NGXF,Y,Z  is equivalent  to a cutoff of  19.67, 18.77, 18.62 a.u.

 SYSTEM =  unknown system                          
 POSCAR =   C  H                                   

 Startparameter for this run:
   NWRITE =      2    write-flag & timer
   PREC   = normal    normal or accurate (medium, high low for compatibility)
   ISTART =      1    job   : 0-new  1-cont  2-samecut
   ICHARG =      0    charge: 1-file 2-atom 10-const
   ISPIN  =      1    spin polarized calculation?
   LNONCOLLINEAR =      F non collinear calculations
   LSORBIT =      F    spin-orbit coupling
   INIWAV =      1    electr: 0-lowe 1-rand  2-diag
   LASPH  =      F    aspherical Exc in radial PAW
 Electronic Relaxation 1
   ENCUT  =  500.0 eV  36.75 Ry    6.06 a.u.  43.16 40.69 54.70*2*pi/ulx,y,z
   ENINI  =  500.0     initial cutoff
   ENAUG  =  644.9 eV  augmentation charge cutoff
   NELM   =    200;   NELMIN=  2; NELMDL=  0     # of ELM steps 
   EDIFF  = 0.1E-04   stopping-criterion for ELM
   LREAL  =      T    real-space projection
   NLSPLINE    = F    spline interpolate recip. space projectors
   LCOMPAT=      F    compatible to vasp.4.4
   GGA_COMPAT  = T    GGA compatible to vasp.4.4-vasp.4.6
   LMAXPAW     = -100 max onsite density
   LMAXMIX     =    2 max onsite mixed and CHGCAR
   VOSKOWN=      0    Vosko Wilk Nusair interpolation
   ROPT   =   -0.00050  -0.00050
 Ionic relaxation
   EDIFFG = -.5E-01   stopping-criterion for IOM
   NSW    =    500    number of steps for IOM
   NBLOCK =      1;   KBLOCK =    500    inner block; outer block 
   IBRION =      2    ionic relax: 0-MD 1-quasi-New 2-CG
   NFREE  =      1    steps in history (QN), initial steepest desc. (CG)
   ISIF   =      2    stress and relaxation
   IWAVPR =     11    prediction:  0-non 1-charg 2-wave 3-comb
   ISYM   =      2    0-nonsym 1-usesym 2-fastsym
   LCORR  =      T    Harris-Foulkes like correction to forces

   POTIM  = 0.5000    time-step for ionic-motion
   TEIN   =    0.0    initial temperature
   TEBEG  =    0.0;   TEEND  =   0.0 temperature during run
   SMASS  =  -3.00    Nose mass-parameter (am)
   estimated Nose-frequenzy (Omega)   =  0.10E-29 period in steps = 0.13E+47 mass=  -0.128E-25a.u.
   SCALEE = 1.0000    scale energy and forces
   NPACO  =    256;   APACO  = 10.0  distance and # of slots for P.C.
   PSTRESS=    0.0 pullay stress

  Mass of Ions in am
   POMASS =  12.01  1.00
  Ionic Valenz
   ZVAL   =   4.00  1.00
  Atomic Wigner-Seitz radii
   RWIGS  =  -1.00 -1.00
  virtual crystal weights 
   VCA    =   1.00  1.00
   NELECT =       8.0000    total number of electrons
   NUPDOWN=      -1.0000    fix difference up-down

 DOS related values:
   EMIN   =  10.00;   EMAX   =-10.00  energy-range for DOS
   EFERMI =   0.00
   ISMEAR =     0;   SIGMA  =   0.01  broadening in eV -4-tet -1-fermi 0-gaus

 Electronic relaxation 2 (details)
   IALGO  =     58    algorithm
   LDIAG  =      T    sub-space diagonalisation (order eigenvalues)
   LSUBROT=      F    optimize rotation matrix (better conditioning)
   TURBO    =      0    0=normal 1=particle mesh
   IRESTART =      0    0=no restart 2=restart with 2 vectors
   NREBOOT  =      0    no. of reboots
   NMIN     =      0    reboot dimension
   EREF     =   0.00    reference energy to select bands
   IMIX   =      4    mixing-type and parameters
     AMIX     =   0.40;   BMIX     =  1.00
     AMIX_MAG =   1.60;   BMIX_MAG =  1.00
     AMIN     =   0.10
     WC   =   100.;   INIMIX=   1;  MIXPRE=   1;  MAXMIX= -45

 Intra band minimization:
   WEIMIN = 0.0010     energy-eigenvalue tresh-hold
   EBREAK =  0.39E-07  absolut break condition
   DEPER  =   0.30     relativ break condition  

   TIME   =   0.40     timestep for ELM

  volume/ion in A,a.u.               =    3169.57     21389.30
  Fermi-wavevector in a.u.,A,eV,Ry     =   0.130351  0.246328  0.231182  0.016991
  Thomas-Fermi vector in A             =   0.769859
 
 Write flags
   LWAVE        =      T    write WAVECAR
   LDOWNSAMPLE  =      F    k-point downsampling of WAVECAR
   LCHARG       =      T    write CHGCAR
   LVTOT        =      F    write LOCPOT, total local potential
   LVHAR        =      F    write LOCPOT, Hartree potential only
   LELF         =      F    write electronic localiz. function (ELF)
   LORBIT       =      0    0 simple, 1 ext, 2 COOP (PROOUT), +10 PAW based schemes


 Dipole corrections
   LMONO  =      F    monopole corrections only (constant potential shift)
   LDIPOL =      F    correct potential (dipole corrections)
   IDIPOL =      0    1-x, 2-y, 3-z, 4-all directions 
   EPSILON=  1.0000000 bulk dielectric constant

 Exchange correlation treatment:
   GGA     =    BF    GGA type
   LEXCH   =    17    internal setting for exchange type
   LIBXC   =     F    Libxc                    
   VOSKOWN =     0    Vosko Wilk Nusair interpolation
   LHFCALC =     F    Hartree Fock is set to
   LHFONE  =     F    Hartree Fock one center treatment
   AEXX    =    0.0000 exact exchange contribution

 vdW DFT:
   LUSE_VDW   =     T    switch on vdW DFT
   Zab_VDW    =******    correlation parameter
   PARAM1     =0.1234
   PARAM2     =1.0000
   PARAM3     =0.0000
   -- rVV10 --
   BPARAM     = 6.3000
   CPARAM     = 0.0093

 Linear response parameters
   LEPSILON=     F    determine dielectric tensor
   LRPA    =     F    only Hartree local field effects (RPA)
   LNABLA  =     F    use nabla operator in PAW spheres
   LVEL    =     F    velocity operator in full k-point grid
   CSHIFT  =0.1000    complex shift for real part using Kramers Kronig
   OMEGAMAX=  -1.0    maximum frequency
   DEG_THRESHOLD= 0.2000000E-02 threshold for treating states as degnerate
   RTIME   =   -0.100 relaxation time in fs
  (WPLASMAI=    0.000 imaginary part of plasma frequency in eV, 0.658/RTIME)
   DFIELD  = 0.0000000 0.0000000 0.0000000 field for delta impulse in time
 
  Optional k-point grid parameters
   LKPOINTS_OPT  =     F    use optional k-point grid
   KPOINTS_OPT_MODE=     1    mode for optional k-point grid
 
 Orbital magnetization related:
   ORBITALMAG=     F  switch on orbital magnetization
   LCHIMAG   =     F  perturbation theory with respect to B field
   DQ        =  0.001000  dq finite difference perturbation B field
   LLRAUG    =     F  two centre corrections for induced B field



--------------------------------------------------------------------------------------------------------


 conjugate gradient relaxation of ions
 charge density and potential will be updated during run
 non-spin polarized calculation
 Conjugate gradient for all bands (Freysoldt, et al. PRB 79, 241103 (2009))
 preconditioned conjugated gradient                                        
 perform sub-space diagonalisation
    before iterative eigenvector-optimisation
 modified Broyden-mixing scheme, WC =      100.0
 initial mixing is a Kerker type mixing with AMIX =  0.4000 and BMIX =      1.0000
 Hartree-type preconditioning will be used
 using additional bands           60
 real space projection scheme for non local part
 use partial core corrections
 no Harris-corrections to forces 
 use gradient corrections 
 use of overlap-Matrix (Vanderbilt PP)
 Gauss-broadening in eV      SIGMA  =   0.01


--------------------------------------------------------------------------------------------------------


  energy-cutoff  :      500.00
  volume of cell :    15847.84
      direct lattice vectors                 reciprocal lattice vectors
    23.670780182  0.000000000  0.000000000     0.042246178  0.000000000  0.000000000
     0.000000000 22.317026138  0.000000000     0.000000000  0.044808838  0.000000000
     0.000000000  0.000000000 30.000000000     0.000000000  0.000000000  0.033333333

  length of vectors
    23.670780182 22.317026138 30.000000000     0.042246178  0.044808838  0.033333333


 
 old parameters found on file WAVECAR:
  energy-cutoff  :      500.00
  volume of cell :    15847.84
      direct lattice vectors                 reciprocal lattice vectors
    23.670780182  0.000000000  0.000000000     0.042246178  0.000000000  0.000000000
     0.000000000 22.317026138  0.000000000     0.000000000  0.044808838  0.000000000
     0.000000000  0.000000000 30.000000000     0.000000000  0.000000000  0.033333333

  length of vectors

 
 k-points in units of 2pi/SCALE and weight: KPOINTS created by Atomic Simulation Env
   0.00000000  0.00000000  0.00000000       1.000
 
 k-points in reciprocal lattice and weights: KPOINTS created by Atomic Simulation Env
   0.00000000  0.00000000  0.00000000       1.000
 
 position of ions in fractional coordinates (direct lattice) 
   0.50000000  0.50000000  0.50000000
   0.52340861  0.53582915  0.51655000
   0.52886681  0.46355249  0.49154667
   0.46712402  0.48326390  0.52230667
   0.48059633  0.51735894  0.46959667
 
 position of ions in cartesian coordinates  (Angst):
  11.83539009 11.15851307 15.00000000
  12.38949009 11.95811307 15.49650000
  12.51869009 10.34511307 14.74640000
  11.05719009 10.78501307 15.66920000
  11.37609009 11.54591307 14.08790000
 


--------------------------------------------------------------------------------------------------------


 use serial FFT for orbitals x direction half grid
 k-point   1 :   0.0000 0.0000 0.0000  plane waves:  201172

 maximum and minimum number of plane-waves per node :    201172   201172

 maximum number of plane-waves:    201172
 maximum index in each direction: 
   IXMAX=   43   IYMAX=   40   IZMAX=   54
   IXMIN=    0   IYMIN=  -40   IZMIN=  -54


 serial   3D FFT for wavefunctions
 parallel 3D FFT for charge:
    minimum data exchange during FFTs selected (reduces bandwidth)


 total amount of memory used by VASP MPI-rank0   208474. kBytes
=======================================================================

   base      :      30000. kBytes
   nonlr-proj:        264. kBytes
   fftplans  :      25914. kBytes
   grid      :     142632. kBytes
   one-center:          7. kBytes
   wavefun   :       9657. kBytes
 
     INWAV:  cpu time      2.3856: real time      2.4279
 Broyden mixing: mesh for mixing (old mesh)
   NGX = 87   NGY = 81   NGZ =109
  (NGX  =280   NGY  =252   NGZ  =336)
  gives a total of 768123 points

 charge density for first step will be calculated from the start-wavefunctions


--------------------------------------------------------------------------------------------------------


 Maximum index for non-local projection operator         1203
 Maximum index for augmentation-charges           84 (set IRDMAX)


--------------------------------------------------------------------------------------------------------


 initial charge from wavefunction
 First call to EWALD:  gamma=   0.071
 Maximum number of real-space cells 3x 3x 2
 Maximum number of reciprocal cells 3x 2x 3

    FEWALD:  cpu time      0.0112: real time      0.0111


--------------------------------------- Iteration      1(   1)  ---------------------------------------


vdW kernel read from vdw_kernel.bindat
  0.0000  0.2424  0.5071  0.7962  1.1119  1.4567  1.8333  2.2446  2.6937  3.1842
  3.7199  4.3049  4.9438  5.6415  6.4036  7.2358  8.1446  9.1372 10.2212 11.4050
 12.6979 14.1099 15.6519 17.3360 19.1751 21.1837 23.3773 25.7729 28.3892 31.2465
 34.3669 37.7748 41.4965 45.5611 50.0000
 
    POTLOK:  cpu time     15.3288: real time     15.3567
    SETDIJ:  cpu time      0.0095: real time      0.0095
    TRIAL :  cpu time      1.1115: real time      1.1488
    CORREC:  cpu time     15.8613: real time     15.8679
    CHARGE:  cpu time      0.3854: real time      0.3867
    --------------------------------------------
      LOOP:  cpu time     32.7080: real time     32.7900

 eigenvalue-minimisations  :     0
 total energy-change (2. order) : 0.8759776E+01  (-0.1947343E+02)
 number of electron       8.0000000 magnetization 
 augmentation part        0.1212166 magnetization 

 Free energy of the ion-electron system (eV)
  ---------------------------------------------------
  alpha Z        PSCENC =         0.01528604
  Ewald energy   TEWEN  =       208.76102103
  -Hartree energ DENC   =      -393.25321164
  -exchange      EXHF   =         0.00000000
  -V(xc)+E(xc)   XCENC  =        25.89066454
  PAW double counting   =      2040.80852066    -2041.90183940
  entropy T*S    EENTRO =        -0.00000000
  eigenvalues    EBANDS =       -33.05606339
  atomic energy  EATOM  =       201.49539784
  ---------------------------------------------------
  free energy    TOTEN  =         8.75977567 eV

  energy without entropy =        8.75977567  energy(sigma->0) =        8.75977567


--------------------------------------------------------------------------------------------------------




--------------------------------------- Iteration      1(   2)  ---------------------------------------


    POTLOK:  cpu time     14.9928: real time     14.9952
    SETDIJ:  cpu time      0.0083: real time      0.0083
    TRIAL :  cpu time      1.0103: real time      1.0072
    CORREC:  cpu time     15.7981: real time     15.8031
    CHARGE:  cpu time      0.3853: real time      0.3858
    --------------------------------------------
      LOOP:  cpu time     32.1974: real time     32.2029

 eigenvalue-minimisations  :     0
 total energy-change (2. order) :-0.1888990E+02  (-0.9428983E+01)
 number of electron       7.9999999 magnetization 
 augmentation part        0.1508605 magnetization 

 Free energy of the ion-electron system (eV)
  ---------------------------------------------------
  alpha Z        PSCENC =         0.01528604
  Ewald energy   TEWEN  =       208.76102103
  -Hartree energ DENC   =      -318.05623082
  -exchange      EXHF   =         0.00000000
  -V(xc)+E(xc)   XCENC  =        21.74524336
  PAW double counting   =       632.56662489     -633.56065836
  entropy T*S    EENTRO =        -0.00000000
  eigenvalues    EBANDS =      -123.09681088
  atomic energy  EATOM  =       201.49539784
  ---------------------------------------------------
  free energy    TOTEN  =       -10.13012691 eV

  energy without entropy =      -10.13012691  energy(sigma->0) =      -10.13012691


--------------------------------------------------------------------------------------------------------




--------------------------------------- Iteration      1(   3)  ---------------------------------------


    POTLOK:  cpu time     15.0145: real time     15.0190
    SETDIJ:  cpu time      0.0078: real time      0.0078
    TRIAL :  cpu time      0.9797: real time      0.9768
    CORREC:  cpu time     15.6978: real time     15.7025
    CHARGE:  cpu time      0.3868: real time      0.3865
    --------------------------------------------
      LOOP:  cpu time     32.0889: real time     32.0948

 eigenvalue-minimisations  :     0
 total energy-change (2. order) :-0.9563720E+01  (-0.2387986E+01)
 number of electron       7.9999999 magnetization 
 augmentation part        0.1813182 magnetization 

 Free energy of the ion-electron system (eV)
  ---------------------------------------------------
  alpha Z        PSCENC =         0.01528604
  Ewald energy   TEWEN  =       208.76102103
  -Hartree energ DENC   =      -343.16384448
  -exchange      EXHF   =         0.00000000
  -V(xc)+E(xc)   XCENC  =        23.69709469
  PAW double counting   =       611.71267747     -612.73123784
  entropy T*S    EENTRO =        -0.00000000
  eigenvalues    EBANDS =      -109.48024185
  atomic energy  EATOM  =       201.49539784
  ---------------------------------------------------
  free energy    TOTEN  =       -19.69384711 eV

  energy without entropy =      -19.69384711  energy(sigma->0) =      -19.69384711


--------------------------------------------------------------------------------------------------------




--------------------------------------- Iteration      1(   4)  ---------------------------------------


    POTLOK:  cpu time     15.0337: real time     15.0367
    SETDIJ:  cpu time      0.0075: real time      0.0075
    TRIAL :  cpu time      0.9834: real time      0.9802
    CORREC:  cpu time     15.7766: real time     15.7840
    CHARGE:  cpu time      0.3860: real time      0.3859
    --------------------------------------------
      LOOP:  cpu time     32.1892: real time     32.1962

 eigenvalue-minimisations  :     0
 total energy-change (2. order) :-0.2389822E+01  (-0.8724244E+00)
 number of electron       7.9999999 magnetization 
 augmentation part        0.1935960 magnetization 

 Free energy of the ion-electron system (eV)
  ---------------------------------------------------
  alpha Z        PSCENC =         0.01528604
  Ewald energy   TEWEN  =       208.76102103
  -Hartree energ DENC   =      -365.29747986
  -exchange      EXHF   =         0.00000000
  -V(xc)+E(xc)   XCENC  =        25.20669370
  PAW double counting   =       620.02338087     -621.08170732
  entropy T*S    EENTRO =        -0.00000000
  eigenvalues    EBANDS =       -91.20626173
  atomic energy  EATOM  =       201.49539784
  ---------------------------------------------------
  free energy    TOTEN  =       -22.08366943 eV

  energy without entropy =      -22.08366943  energy(sigma->0) =      -22.08366943


--------------------------------------------------------------------------------------------------------




--------------------------------------- Iteration      1(   5)  ---------------------------------------


    POTLOK:  cpu time     15.0380: real time     15.0433
    SETDIJ:  cpu time      0.0079: real time      0.0079
    TRIAL :  cpu time      0.9849: real time      0.9816
    CORREC:  cpu time     15.7872: real time     15.7923
    CHARGE:  cpu time      0.3847: real time      0.3852
    --------------------------------------------
      LOOP:  cpu time     32.2044: real time     32.2121

 eigenvalue-minimisations  :     0
 total energy-change (2. order) :-0.8783655E+00  (-0.2250848E+00)
 number of electron       7.9999999 magnetization 
 augmentation part        0.1903951 magnetization 

 Free energy of the ion-electron system (eV)
  ---------------------------------------------------
  alpha Z        PSCENC =         0.01528604
  Ewald energy   TEWEN  =       208.76102103
  -Hartree energ DENC   =      -366.75998251
  -exchange      EXHF   =         0.00000000
  -V(xc)+E(xc)   XCENC  =        25.25365640
  PAW double counting   =       553.61212518     -554.69098312
  entropy T*S    EENTRO =        -0.00000000
  eigenvalues    EBANDS =       -90.64855575
  atomic energy  EATOM  =       201.49539784
  ---------------------------------------------------
  free energy    TOTEN  =       -22.96203490 eV

  energy without entropy =      -22.96203490  energy(sigma->0) =      -22.96203490


--------------------------------------------------------------------------------------------------------




--------------------------------------- Iteration      1(   6)  ---------------------------------------


    POTLOK:  cpu time     15.0235: real time     15.0276
    SETDIJ:  cpu time      0.0074: real time      0.0074
    TRIAL :  cpu time      0.9776: real time      0.9747
    CORREC:  cpu time     15.7805: real time     15.7856
    CHARGE:  cpu time      0.3917: real time      0.3921
    --------------------------------------------
      LOOP:  cpu time     32.1833: real time     32.1899

 eigenvalue-minimisations  :     0
 total energy-change (2. order) :-0.2249210E+00  (-0.6192529E-01)
 number of electron       7.9999999 magnetization 
 augmentation part        0.1894437 magnetization 

 Free energy of the ion-electron system (eV)
  ---------------------------------------------------
  alpha Z        PSCENC =         0.01528604
  Ewald energy   TEWEN  =       208.76102103
  -Hartree energ DENC   =      -362.74698820
  -exchange      EXHF   =         0.00000000
  -V(xc)+E(xc)   XCENC  =        24.93481767
  PAW double counting   =       509.90778615     -510.98917668
  entropy T*S    EENTRO =        -0.00000000
  eigenvalues    EBANDS =       -94.56509975
  atomic energy  EATOM  =       201.49539784
  ---------------------------------------------------
  free energy    TOTEN  =       -23.18695591 eV

  energy without entropy =      -23.18695591  energy(sigma->0) =      -23.18695591


--------------------------------------------------------------------------------------------------------




--------------------------------------- Iteration      1(   7)  ---------------------------------------


    POTLOK:  cpu time     15.0617: real time     15.0653
    SETDIJ:  cpu time      0.0079: real time      0.0079
    TRIAL :  cpu time      0.9834: real time      0.9804
    CORREC:  cpu time     15.7664: real time     15.7709
    CHARGE:  cpu time      0.3869: real time      0.3875
    --------------------------------------------
      LOOP:  cpu time     32.2081: real time     32.2138

 eigenvalue-minimisations  :     0
 total energy-change (2. order) :-0.6208164E-01  (-0.1929992E-01)
 number of electron       7.9999999 magnetization 
 augmentation part        0.1898312 magnetization 

 Free energy of the ion-electron system (eV)
  ---------------------------------------------------
  alpha Z        PSCENC =         0.01528604
  Ewald energy   TEWEN  =       208.76102103
  -Hartree energ DENC   =      -363.63377855
  -exchange      EXHF   =         0.00000000
  -V(xc)+E(xc)   XCENC  =        24.97486059
  PAW double counting   =       494.83365979     -495.91546380
  entropy T*S    EENTRO =        -0.00000000
  eigenvalues    EBANDS =       -93.78002049
  atomic energy  EATOM  =       201.49539784
  ---------------------------------------------------
  free energy    TOTEN  =       -23.24903755 eV

  energy without entropy =      -23.24903755  energy(sigma->0) =      -23.24903755


--------------------------------------------------------------------------------------------------------




--------------------------------------- Iteration      1(   8)  ---------------------------------------


    POTLOK:  cpu time     15.0694: real time     15.0724
    SETDIJ:  cpu time      0.0079: real time      0.0079
    TRIAL :  cpu time      0.9798: real time      0.9791
    CORREC:  cpu time     15.6527: real time     15.6570
    CHARGE:  cpu time      0.3876: real time      0.3873
    --------------------------------------------
      LOOP:  cpu time     32.1034: real time     32.1097

 eigenvalue-minimisations  :     0
 total energy-change (2. order) :-0.1935003E-01  (-0.6273663E-02)
 number of electron       7.9999999 magnetization 
 augmentation part        0.1895865 magnetization 

 Free energy of the ion-electron system (eV)
  ---------------------------------------------------
  alpha Z        PSCENC =         0.01528604
  Ewald energy   TEWEN  =       208.76102103
  -Hartree energ DENC   =      -364.37563792
  -exchange      EXHF   =         0.00000000
  -V(xc)+E(xc)   XCENC  =        25.02219048
  PAW double counting   =       489.29076255     -490.37236054
  entropy T*S    EENTRO =        -0.00000000
  eigenvalues    EBANDS =       -93.10504706
  atomic energy  EATOM  =       201.49539784
  ---------------------------------------------------
  free energy    TOTEN  =       -23.26838759 eV

  energy without entropy =      -23.26838759  energy(sigma->0) =      -23.26838759


--------------------------------------------------------------------------------------------------------




--------------------------------------- Iteration      1(   9)  ---------------------------------------


    POTLOK:  cpu time     15.0145: real time     15.0184
    SETDIJ:  cpu time      0.0075: real time      0.0075
    TRIAL :  cpu time      0.9956: real time      0.9919
    CORREC:  cpu time     15.6669: real time     15.6768
    CHARGE:  cpu time      0.3873: real time      0.3874
    --------------------------------------------
      LOOP:  cpu time     32.0741: real time     32.0842

 eigenvalue-minimisations  :     0
 total energy-change (2. order) :-0.6280486E-02  (-0.2442448E-02)
 number of electron       7.9999999 magnetization 
 augmentation part        0.1894544 magnetization 

 Free energy of the ion-electron system (eV)
  ---------------------------------------------------
  alpha Z        PSCENC =         0.01528604
  Ewald energy   TEWEN  =       208.76102103
  -Hartree energ DENC   =      -363.99155351
  -exchange      EXHF   =         0.00000000
  -V(xc)+E(xc)   XCENC  =        24.99805001
  PAW double counting   =       486.52954783     -487.61047167
  entropy T*S    EENTRO =        -0.00000000
  eigenvalues    EBANDS =       -93.47194565
  atomic energy  EATOM  =       201.49539784
  ---------------------------------------------------
  free energy    TOTEN  =       -23.27466807 eV

  energy without entropy =      -23.27466807  energy(sigma->0) =      -23.27466807


--------------------------------------------------------------------------------------------------------




--------------------------------------- Iteration      1(  10)  ---------------------------------------


    POTLOK:  cpu time     14.8182: real time     14.8266
    SETDIJ:  cpu time      0.0077: real time      0.0077
    TRIAL :  cpu time      0.9788: real time      0.9764
    CORREC:  cpu time     15.2091: real time     15.2175
    CHARGE:  cpu time      0.3876: real time      0.3879
    --------------------------------------------
      LOOP:  cpu time     31.4035: real time     31.4181

 eigenvalue-minimisations  :     0
 total energy-change (2. order) :-0.2448429E-02  (-0.8592542E-03)
 number of electron       7.9999999 magnetization 
 augmentation part        0.1896614 magnetization 

 Free energy of the ion-electron system (eV)
  ---------------------------------------------------
  alpha Z        PSCENC =         0.01528604
  Ewald energy   TEWEN  =       208.76102103
  -Hartree energ DENC   =      -363.90726222
  -exchange      EXHF   =         0.00000000
  -V(xc)+E(xc)   XCENC  =        24.99256858
  PAW double counting   =       486.18502802     -487.26562151
  entropy T*S    EENTRO =        -0.00000000
  eigenvalues    EBANDS =       -93.55353428
  atomic energy  EATOM  =       201.49539784
  ---------------------------------------------------
  free energy    TOTEN  =       -23.27711650 eV

  energy without entropy =      -23.27711650  energy(sigma->0) =      -23.27711650


--------------------------------------------------------------------------------------------------------




--------------------------------------- Iteration      1(  11)  ---------------------------------------


    POTLOK:  cpu time     14.2584: real time     14.2657
    SETDIJ:  cpu time      0.0108: real time      0.0108
    TRIAL :  cpu time      0.9936: real time      0.9921
    CORREC:  cpu time     14.8871: real time     14.8955
    CHARGE:  cpu time      0.3848: real time      0.3845
    --------------------------------------------
      LOOP:  cpu time     30.5368: real time     30.5508

 eigenvalue-minimisations  :     0
 total energy-change (2. order) :-0.8613372E-03  (-0.2841172E-03)
 number of electron       7.9999999 magnetization 
 augmentation part        0.1898339 magnetization 

 Free energy of the ion-electron system (eV)
  ---------------------------------------------------
  alpha Z        PSCENC =         0.01528604
  Ewald energy   TEWEN  =       208.76102103
  -Hartree energ DENC   =      -364.03372513
  -exchange      EXHF   =         0.00000000
  -V(xc)+E(xc)   XCENC  =        25.00030080
  PAW double counting   =       486.85866392     -487.93931558
  entropy T*S    EENTRO =        -0.00000000
  eigenvalues    EBANDS =       -93.43560676
  atomic energy  EATOM  =       201.49539784
  ---------------------------------------------------
  free energy    TOTEN  =       -23.27797784 eV

  energy without entropy =      -23.27797784  energy(sigma->0) =      -23.27797784


--------------------------------------------------------------------------------------------------------




--------------------------------------- Iteration      1(  12)  ---------------------------------------


    POTLOK:  cpu time     14.1285: real time     14.1372
    SETDIJ:  cpu time      0.0078: real time      0.0078
    TRIAL :  cpu time      0.9851: real time      0.9827
    CORREC:  cpu time     14.8405: real time     14.8492
    CHARGE:  cpu time      0.3884: real time      0.3885
    --------------------------------------------
      LOOP:  cpu time     30.3531: real time     30.3683

 eigenvalue-minimisations  :     0
 total energy-change (2. order) :-0.2846974E-03  (-0.7791217E-04)
 number of electron       7.9999999 magnetization 
 augmentation part        0.1899207 magnetization 

 Free energy of the ion-electron system (eV)
  ---------------------------------------------------
  alpha Z        PSCENC =         0.01528604
  Ewald energy   TEWEN  =       208.76102103
  -Hartree energ DENC   =      -364.01231513
  -exchange      EXHF   =         0.00000000
  -V(xc)+E(xc)   XCENC  =        24.99845563
  PAW double counting   =       487.41290521     -488.49366462
  entropy T*S    EENTRO =        -0.00000000
  eigenvalues    EBANDS =       -93.45534852
  atomic energy  EATOM  =       201.49539784
  ---------------------------------------------------
  free energy    TOTEN  =       -23.27826254 eV

  energy without entropy =      -23.27826254  energy(sigma->0) =      -23.27826254


--------------------------------------------------------------------------------------------------------




--------------------------------------- Iteration      1(  13)  ---------------------------------------


    POTLOK:  cpu time     14.1451: real time     14.1524
    SETDIJ:  cpu time      0.0078: real time      0.0078
    TRIAL :  cpu time      0.9824: real time      0.9802
    CORREC:  cpu time     14.8069: real time     14.8153
    CHARGE:  cpu time      0.3850: real time      0.3857
    --------------------------------------------
      LOOP:  cpu time     30.3297: real time     30.3439

 eigenvalue-minimisations  :     0
 total energy-change (2. order) :-0.7813678E-04  (-0.2118004E-04)
 number of electron       7.9999999 magnetization 
 augmentation part        0.1899702 magnetization 

 Free energy of the ion-electron system (eV)
  ---------------------------------------------------
  alpha Z        PSCENC =         0.01528604
  Ewald energy   TEWEN  =       208.76102103
  -Hartree energ DENC   =      -363.98924228
  -exchange      EXHF   =         0.00000000
  -V(xc)+E(xc)   XCENC  =        24.99685787
  PAW double counting   =       487.86103018     -488.94187340
  entropy T*S    EENTRO =        -0.00000000
  eigenvalues    EBANDS =       -93.47681794
  atomic energy  EATOM  =       201.49539784
  ---------------------------------------------------
  free energy    TOTEN  =       -23.27834067 eV

  energy without entropy =      -23.27834067  energy(sigma->0) =      -23.27834067


--------------------------------------------------------------------------------------------------------




--------------------------------------- Iteration      1(  14)  ---------------------------------------


    POTLOK:  cpu time     14.1379: real time     14.1455
    SETDIJ:  cpu time      0.0075: real time      0.0075
    TRIAL :  cpu time      0.9756: real time      0.9732
    CORREC:  cpu time     14.9033: real time     14.9112
    CHARGE:  cpu time      0.3867: real time      0.3874
    --------------------------------------------
      LOOP:  cpu time     30.4129: real time     30.4268

 eigenvalue-minimisations  :     0
 total energy-change (2. order) :-0.2119152E-04  (-0.6036945E-05)
 number of electron       7.9999999 magnetization 
 augmentation part        0.1899811 magnetization 

 Free energy of the ion-electron system (eV)
  ---------------------------------------------------
  alpha Z        PSCENC =         0.01528604
  Ewald energy   TEWEN  =       208.76102103
  -Hartree energ DENC   =      -364.00251316
  -exchange      EXHF   =         0.00000000
  -V(xc)+E(xc)   XCENC  =        24.99783145
  PAW double counting   =       488.20750842     -489.28840956
  entropy T*S    EENTRO =        -0.00000000
  eigenvalues    EBANDS =       -93.46448392
  atomic energy  EATOM  =       201.49539784
  ---------------------------------------------------
  free energy    TOTEN  =       -23.27836187 eV

  energy without entropy =      -23.27836187  energy(sigma->0) =      -23.27836187


--------------------------------------------------------------------------------------------------------




--------------------------------------- Iteration      1(  15)  ---------------------------------------


    POTLOK:  cpu time     14.1554: real time     14.1624
    SETDIJ:  cpu time      0.0075: real time      0.0075
    TRIAL :  cpu time      0.9802: real time      0.9786
    CORREC:  cpu time     14.9124: real time     14.9213
    EDDIAG:  cpu time      0.3631: real time      0.3742
    CHARGE:  cpu time      0.3940: real time      0.3946
    --------------------------------------------
      LOOP:  cpu time     30.8142: real time     30.8404

 eigenvalue-minimisations  :     0
 total energy-change (2. order) :-0.6039786E-05  (-0.1766447E-05)
 number of electron       7.9999999 magnetization 
 augmentation part        0.1899759 magnetization 

 Free energy of the ion-electron system (eV)
  ---------------------------------------------------
  alpha Z        PSCENC =         0.01528604
  Ewald energy   TEWEN  =       208.76102103
  -Hartree energ DENC   =      -364.00240111
  -exchange      EXHF   =         0.00000000
  -V(xc)+E(xc)   XCENC  =        24.99795052
  PAW double counting   =       488.39089661     -489.47182025
  entropy T*S    EENTRO =        -0.00000000
  eigenvalues    EBANDS =       -93.46469858
  atomic energy  EATOM  =       201.49539784
  ---------------------------------------------------
  free energy    TOTEN  =       -23.27836791 eV

  energy without entropy =      -23.27836791  energy(sigma->0) =      -23.27836791


--------------------------------------------------------------------------------------------------------


  average scaling for gradient   2.3005


 average (electrostatic) potential at core
  the test charge radii are     0.6991  0.5201
  (the norm of the test charge is              1.0000)
       1 -58.6778       2 -42.9015       3 -42.9023       4 -42.9015       5 -42.9013
 
 
 
 E-fermi :  -9.6910     XC(G=0):  -0.0648     alpha+bet : -0.0133

 Fermi energy:        -9.6910284999

 k-point     1 :       0.0000    0.0000    0.0000
  band No.  band energies     occupation 
      1     -17.4226      2.00000
      2      -9.7708      2.00000
      3      -9.7705      2.00000
      4      -9.7704      2.00000
      5      -0.7973      0.00000
      6       0.0186      0.00000
      7       0.1140      0.00000
      8       0.1705      0.00000
      9       0.1852      0.00000
     10       0.1865      0.00000
     11       0.2732      0.00000
     12       0.3073      0.00000
     13       0.3309      0.00000
     14       0.3426      0.00000
     15       0.3682      0.00000
     16       0.4237      0.00000
     17       0.4390      0.00000
     18       0.4587      0.00000
     19       0.5035      0.00000
     20       0.5204      0.00000
     21       0.5517      0.00000
     22       0.5930      0.00000
     23       0.5933      0.00000
     24       0.6533      0.00000
     25       0.6546      0.00000
     26       0.6663      0.00000
     27       0.6680      0.00000
     28       0.6713      0.00000
     29       0.6823      0.00000
     30       0.7235      0.00000
     31       0.7396      0.00000
     32       0.8120      0.00000
     33       0.8613      0.00000
     34       0.8642      0.00000
     35       0.8676      0.00000
     36       0.8690      0.00000
     37       0.8842      0.00000
     38       0.9151      0.00000
     39       1.0044      0.00000
     40       1.0369      0.00000
     41       1.0794      0.00000
     42       1.0902      0.00000
     43       1.1114      0.00000
     44       1.1129      0.00000
     45       1.1232      0.00000
     46       1.1396      0.00000
     47       1.1712      0.00000
     48       1.1848      0.00000
     49       1.2246      0.00000
     50       1.2480      0.00000
     51       1.2646      0.00000
     52       1.2702      0.00000
     53       1.2932      0.00000
     54       1.3286      0.00000
     55       1.3792      0.00000
     56       1.4190      0.00000
     57       1.4264      0.00000
     58       1.4336      0.00000
     59       1.4490      0.00000
     60       1.4930      0.00000
     61       1.5025      0.00000
     62       1.5466      0.00000
     63       1.5652      0.00000
     64       1.6090      0.00000


--------------------------------------------------------------------------------------------------------


 soft charge-density along one line, spin component           1
         0         1         2         3         4         5         6         7         8         9
 total charge-density along one line
 
 pseudopotential strength for first ion, spin component:           1
 10.256  13.639   0.000  -0.000  -0.000  -0.000   0.000   0.000
 13.639  18.139   0.000  -0.000  -0.000  -0.000   0.000   0.000
  0.000   0.000  -4.249  -0.000   0.000   8.310   0.000  -0.000
 -0.000  -0.000  -0.000  -4.249   0.000   0.000   8.310  -0.000
 -0.000  -0.000   0.000   0.000  -4.249  -0.000  -0.000   8.310
 -0.000  -0.000   8.310   0.000  -0.000 -18.391  -0.000   0.000
  0.000   0.000   0.000   8.310  -0.000  -0.000 -18.391   0.000
  0.000   0.000  -0.000  -0.000   8.310   0.000   0.000 -18.391
 total augmentation occupancy for first ion, spin component:           1
  8.305  -3.645   0.000   0.001   0.000   0.000   0.000   0.000
 -3.645   1.600  -0.000  -0.000  -0.000  -0.000  -0.000  -0.000
  0.000  -0.000   1.633   0.000  -0.000   0.138  -0.000  -0.000
  0.001  -0.000   0.000   1.633  -0.000  -0.000   0.138   0.000
  0.000  -0.000  -0.000  -0.000   1.634  -0.000  -0.000   0.138
  0.000  -0.000   0.138  -0.000  -0.000   0.012  -0.000  -0.000
  0.000  -0.000  -0.000   0.138  -0.000  -0.000   0.012  -0.000
  0.000  -0.000  -0.000   0.000   0.138  -0.000  -0.000   0.012


------------------------ aborting loop because EDIFF is reached ----------------------------------------


    FORLOC:  cpu time      0.0489: real time      0.0491
    FORNL :  cpu time      0.4582: real time      0.4588
    STRESS:  cpu time      1.2324: real time      1.2331
    FORCOR:  cpu time     14.1072: real time     14.1154
    OFIELD:  cpu time      0.0020: real time      0.0020

  FORCE on cell =-STRESS in cart. coord.  units (eV):
  Direction    XX          YY          ZZ          XY          YZ          ZX
  --------------------------------------------------------------------------------------
  Alpha Z     0.01529     0.01529     0.01529
  Ewald      73.08521    76.17236    59.50352    -0.00249     0.00161    -0.00218
  Hartree   124.81965   127.88460   111.29225    -0.00028    -0.00005    -0.00039
  E(xc)     -28.83949   -28.83945   -28.83943     0.00001     0.00000    -0.00000
  Local    -256.33338  -262.48376  -229.22485     0.00201    -0.00101     0.00201
  n-local   -15.68325   -15.65600   -15.64586     0.00024    -0.00057     0.00042
  augment     0.17261     0.17201     0.17245    -0.00002     0.00001    -0.00001
  Kinetic   102.48373   102.48302   102.48412     0.00028     0.00025     0.00037
  Fock        0.00000     0.00000     0.00000     0.00000     0.00000     0.00000
  -------------------------------------------------------------------------------------
  Total      -0.27964    -0.25191    -0.24253    -0.00025     0.00024     0.00021
  in kB      -0.02827    -0.02547    -0.02452    -0.00003     0.00002     0.00002
  external pressure =       -0.03 kB  Pullay stress =        0.00 kB


 VOLUME and BASIS-vectors are now :
 -----------------------------------------------------------------------------
  energy-cutoff  :      500.00
  volume of cell :    15847.84
      direct lattice vectors                 reciprocal lattice vectors
    23.670780182  0.000000000  0.000000000     0.042246178  0.000000000  0.000000000
     0.000000000 22.317026138  0.000000000     0.000000000  0.044808838  0.000000000
     0.000000000  0.000000000 30.000000000     0.000000000  0.000000000  0.033333333

  length of vectors
    23.670780182 22.317026138 30.000000000     0.042246178  0.044808838  0.033333333


 FORCES acting on ions:
    Electron-Ion                     Ewald-Force                    Non-Local-Force
 -----------------------------------------------------------------------------------------------
   0.947E-03 0.596E-03 0.204E-02   -.981E-03 -.559E-03 -.127E-02   -.110E-04 -.156E-03 0.458E-02
   -.272E+02 -.393E+02 -.244E+02   0.301E+02 0.434E+02 0.270E+02   -.290E+01 -.419E+01 -.260E+01
   -.336E+02 0.400E+02 0.125E+02   0.371E+02 -.442E+02 -.138E+02   -.358E+01 0.426E+01 0.133E+01
   0.383E+02 0.184E+02 -.329E+02   -.423E+02 -.203E+02 0.364E+02   0.408E+01 0.196E+01 -.350E+01
   0.226E+02 -.190E+02 0.449E+02   -.249E+02 0.210E+02 -.496E+02   0.240E+01 -.203E+01 0.478E+01
 -----------------------------------------------------------------------------------------------
   0.180E-02 -.109E-02 0.136E-02   0.711E-14 0.355E-14 -.711E-14   -.612E-03 -.150E-03 0.431E-02
 
 
 POSITION                                       TOTAL-FORCE (eV/Angst)
 -----------------------------------------------------------------------------------
     11.83539     11.15851     15.00000        -0.000268      0.000119      0.004221
     12.38949     11.95811     15.49650        -0.048626     -0.069587     -0.044426
     12.51869     10.34511     14.74640        -0.059407      0.070543      0.021062
     11.05719     10.78501     15.66920         0.068205      0.032761     -0.059699
     11.37609     11.54591     14.08790         0.040097     -0.033836      0.078843
 -----------------------------------------------------------------------------------
    total drift:                                0.001187     -0.001237      0.005674


--------------------------------------------------------------------------------------------------------



  FREE ENERGIE OF THE ION-ELECTRON SYSTEM (eV)
  ---------------------------------------------------
  free  energy   TOTEN  =       -23.27836791 eV

  energy  without entropy=      -23.27836791  energy(sigma->0) =      -23.27836791
 


--------------------------------------------------------------------------------------------------------


 BEEFens 2000 ensemble energies
             -0.666266380209220E+01
              0.808416676741519E-01
             -0.130472679282566E+01
              0.444696691928141E+01
             -0.233671380183038E+01
             -0.166042220887682E+01
             -0.472842083648373E+01
             -0.984932931773255E+01
             -0.375360800445050E+01
             -0.420850594464258E+01
             -0.332959965364919E+01
              0.242598560481344E+00
              0.128032469194284E+00
              0.648702184494283E-01
              0.315755519436095E+00
              0.486864396722486E+01
             -0.228891773574414E+01
             -0.130096199683882E+01
              0.251229959372432E+01
             -0.115303410908024E+02
              0.543267233523532E+01
             -0.226506424658553E+01
             -0.670580420097173E+00
             -0.104940046587381E+01
              0.108090882235516E+00
             -0.551233821792161E+00
              0.948385751902082E+01
             -0.193422685029076E+01
             -0.761630929681168E+00
             -0.557626977511683E+01
              0.766866167289540E+01
             -0.761200257328060E+00
             -0.432250933633777E+01
              0.178981173958506E+01
             -0.294693255872783E+00
              0.262847989603370E+01
             -0.178240572170026E+00
              0.226328844657257E+00
              0.377627654036604E+01
             -0.105816263845435E+02
              0.597886577612959E+01
              0.110982591245258E+01
             -0.987727395493025E+00
             -0.292627768331722E+01
              0.139923795660251E+01
             -0.150982296084533E+01
              0.507668163245422E+01
              0.369513005851000E+01
             -0.244536482170448E+01
             -0.309154650690034E+01
             -0.323845839922192E+01
             -0.399747544769069E+01
              0.248329088978188E+01
             -0.531612131620791E+01
              0.147834489709022E+01
              0.619224161444074E+01
              0.726889283885364E+01
              0.348097179479577E+01
              0.185910273252595E+01
              0.322660312551702E+01
              0.976700266013379E+01
              0.203395829105902E+01
             -0.579298045407806E+01
             -0.132629030208878E+01
             -0.315731395492241E+01
              0.645661249825238E+01
             -0.785478892555943E+01
             -0.650571877347426E+01
             -0.347060928320372E+01
             -0.157879837567143E+01
             -0.412483069617556E+01
              0.303510034369522E+01
              0.161269320532145E+01
              0.131269662792707E+01
             -0.426371427413854E+01
             -0.356879343322547E+01
             -0.584558360860964E+01
              0.362761005080056E+01
             -0.334331735228753E+01
              0.346286081434244E+01
             -0.923463460969510E+00
             -0.327322122419911E+01
             -0.529987013449593E+01
             -0.149211173337578E+01
             -0.157524211255188E+01
             -0.136641891647276E+01
              0.435907661250671E+01
              0.773762081745404E+01
             -0.427403780245918E+01
             -0.806881942737251E+01
             -0.202032414152281E+01
              0.114663111138419E+02
             -0.605272632441543E+01
              0.338013438845790E+01
             -0.757743627981519E+00
             -0.651535533586064E+01
              0.296660674329492E+01
              0.334431846102193E+01
             -0.149476459344655E+01
              0.323935439559168E+01
             -0.292608836340632E+01
             -0.578181725095877E+01
              0.101783488123001E+02
              0.452496806274473E+01
              0.251621011212257E+01
              0.936906566657573E+00
              0.174684030202015E+01
              0.855298922050351E+01
             -0.301735245612427E+01
              0.353373843267709E+00
             -0.146858538714583E+02
              0.217949362288898E+01
             -0.710232332525171E+01
              0.130627189530430E+01
              0.214302069684409E+01
             -0.350534539925589E+01
             -0.547897862165318E+01
              0.353739280226947E+00
             -0.328006568064038E+01
              0.424788678055991E+01
             -0.461758661307364E+01
             -0.771224183413949E+00
             -0.398877942844566E+01
             -0.284571734744432E-01
              0.279203376180472E+00
              0.208998202952081E+01
              0.119198168050559E+00
             -0.753227286981044E+00
              0.672951812357437E+01
              0.950690947061243E+01
              0.515955662004857E+01
              0.724371775828224E+01
             -0.154947892806118E+01
              0.592123475309503E+00
              0.530445686163277E+01
              0.172568856507413E+00
             -0.788300204272907E+01
             -0.459684559164489E+01
             -0.521352494324514E+01
             -0.310786332473944E+01
              0.284463944280499E+01
             -0.124185236064927E+02
             -0.132420065571254E+01
              0.441804382785264E+01
             -0.441936721944307E+01
             -0.341966512448806E+01
              0.563797124551736E+01
              0.510542417914124E+01
             -0.315454985550763E+01
              0.303623920223969E+01
             -0.284979408905211E+01
              0.401163337797125E+01
              0.826918336607626E+00
              0.141284854792642E+01
             -0.874735012980511E+01
             -0.497429332486446E+01
             -0.117772234223852E+01
             -0.670019409070171E+00
             -0.415617943573886E+01
              0.115652274854800E+02
             -0.130251421156805E+01
             -0.320808211815131E+01
              0.422227649204406E+01
             -0.469426788162508E+01
             -0.391028019485334E+01
              0.314211076054902E+01
              0.111865623993094E+01
              0.100503457384927E+01
              0.143013703112206E+01
             -0.123984784967242E+01
              0.126194227595004E+01
              0.614593581933737E+01
             -0.298033296285882E+01
              0.203594071678648E+01
              0.943674148103319E+01
              0.329078157547133E+01
             -0.272597179095115E+00
             -0.186234008195484E+01
              0.157760474868508E+02
             -0.253692199709354E+01
              0.418554167249046E+01
              0.299760886895516E+01
              0.313482211863231E+01
              0.979181244554434E+01
              0.484983069543721E+01
             -0.298844250631894E+00
              0.233358791865297E+01
              0.542215331928305E+01
              0.368284617321159E+01
             -0.625535426493313E+01
              0.993807129432622E+01
             -0.931622748030536E+01
             -0.135597447339066E+01
              0.581575628385617E+01
              0.127025888357765E+01
              0.311872978723173E+00
              0.308718198547782E+01
              0.193380601748765E+01
              0.327247340728876E+01
             -0.637781180186263E+01
              0.333477067689081E+00
             -0.251672880073282E+01
             -0.313823770456136E+00
             -0.727408604652169E-02
             -0.133766712504614E+01
             -0.623005976225105E+00
              0.899990731694243E+01
             -0.441675203584243E+00
             -0.310168996199131E+01
             -0.269873877319428E+00
              0.147996361352711E+01
             -0.637020721450330E+01
             -0.522965056432549E+01
             -0.343728219795761E+01
             -0.648161102956181E+01
             -0.177098606137727E+01
             -0.435217775458050E+01
              0.170589578678902E+01
             -0.809064649521609E-01
             -0.136272247850705E+01
             -0.903887897759402E+00
              0.736930155654569E+00
             -0.217467309520333E+01
              0.675101068344478E+01
             -0.902936310283308E+01
             -0.110101001565787E+01
             -0.160914535730026E+01
              0.183530273965726E+01
              0.206086815923065E+01
             -0.512723479969449E+01
             -0.140031348251137E+01
              0.479024992435692E+01
             -0.255626780435136E+01
              0.139311217352968E+01
              0.380560392856672E+01
              0.642107911045358E-01
              0.119080625027072E+02
             -0.133691524722028E+01
             -0.393889299788375E+01
             -0.121927804795696E+00
             -0.312211382954868E+01
              0.509068676981671E+01
             -0.501805682106719E+01
              0.167293077820895E+01
              0.502810699933166E+01
             -0.147523957435902E+01
              0.122364868360093E+02
              0.130174010884982E+02
             -0.766626298360502E+01
              0.603140147615980E+01
              0.222631540695059E+01
             -0.563808235379199E+01
              0.229823117697260E+01
              0.438291150790894E+01
              0.457951104146536E+01
              0.432412431620868E+00
              0.231153416172162E+01
              0.766399370845936E+01
             -0.247849762651029E+01
              0.102630783284671E+01
              0.676352891011606E+01
             -0.359508005756152E+01
             -0.224690220707823E+01
              0.614462071192475E+01
              0.330042028610469E+01
              0.797172884498084E+01
              0.338435528302395E+01
              0.142670329422265E+01
              0.243199056013373E+01
              0.453602447232603E+01
             -0.519132682233034E+01
              0.557436271808967E+00
              0.242880954280639E+01
              0.708948094270689E+00
              0.257455810110084E+01
             -0.662456210927693E+01
              0.356267008605299E+01
             -0.440242720550268E+01
             -0.344484567235708E+01
              0.201074077980621E+01
             -0.127184582428234E+01
              0.615510381767168E+01
             -0.196420365999052E+01
              0.280620015540061E+01
              0.314249846120777E+01
              0.823428569962667E+01
              0.564319236081421E+01
              0.549560068300922E+01
             -0.757806653256381E+00
             -0.874242514616437E+00
             -0.333966538970295E+01
              0.841805843479145E+01
              0.855622869036919E+01
              0.381313983892896E+01
             -0.271426455665862E+01
              0.514315017862511E+01
             -0.531975582232075E+00
              0.212552749305510E+01
              0.711564305769328E+01
             -0.423744143005926E+00
             -0.123501975182190E+01
             -0.277801835001672E+01
             -0.624389358162784E+01
              0.100610064496715E+02
              0.509058623017400E+01
             -0.665230314253448E+01
             -0.188348690155109E+01
              0.237690870419732E+01
             -0.138911774716188E+01
              0.644778932407435E+01
              0.179561250954906E+01
              0.817917098062316E+01
              0.277780842345267E+01
             -0.233380326228525E+01
              0.184519753029201E+01
             -0.735442100483937E+00
             -0.257125874312650E+01
              0.179476024814121E+01
              0.207126984462703E+01
              0.940635599556300E+01
              0.777338099632086E+01
              0.611642578378862E+01
              0.744437944165023E+01
              0.104670302899313E+01
             -0.301740733170168E+01
              0.132951233864516E+01
             -0.358444763116079E+01
             -0.555614444746149E+01
             -0.577791772044923E+01
             -0.329618903461461E+01
             -0.115236363450083E+02
             -0.376654220104766E+01
             -0.880797604730420E+01
              0.191086015338020E+01
             -0.486645916991622E+01
              0.512889514129648E+01
             -0.988111327221961E+01
             -0.316234935743653E+01
              0.448938490935464E+01
              0.212333406567533E+01
             -0.904470058485669E+01
              0.552904675410981E+01
             -0.301081659119286E+01
              0.563649460696435E+01
             -0.290142055464051E+01
             -0.773679731881722E+01
              0.174212932421824E+01
             -0.636469422122172E+01
             -0.708223683789857E+00
             -0.167133805932021E+00
              0.431391736802126E+01
              0.130806335686122E+02
             -0.464694263588284E+01
             -0.388789479213996E+01
             -0.942937638935284E+00
             -0.887966042013872E+00
             -0.821924598235399E+01
             -0.626842907547434E+01
              0.553952253841896E+01
             -0.208711062184111E+01
              0.199981443627686E+01
             -0.498276878260454E+01
             -0.134167885083651E+01
             -0.456344314796523E+01
              0.504037040800872E+01
              0.147280568941002E+01
             -0.262252948321498E+01
             -0.152397791221528E+01
              0.118810701460629E+01
             -0.761279897748786E+00
              0.383235485781030E+01
             -0.285093128651435E+01
              0.970890005238473E+00
              0.353376433769460E+01
              0.134252990951087E+01
             -0.236290874483783E+01
              0.162607241671655E+02
              0.608118337237824E+01
              0.763608815903713E+00
              0.748084300499201E+00
             -0.631430917054883E+01
              0.337132750012151E+01
             -0.762750135343397E+01
             -0.342672486207260E+01
             -0.624783014502771E+01
             -0.198540395497312E+01
              0.627605223208086E+01
             -0.602495080028616E+01
              0.235836958692491E+01
             -0.576916997657861E+00
              0.138835337179328E+00
             -0.350688173635878E+01
             -0.445420583436984E+01
             -0.903036000160725E+00
             -0.373094495391177E+01
             -0.227911362616315E+01
             -0.387887975548989E+01
             -0.569569335014107E+00
             -0.324652167868863E+01
             -0.502875201580063E+01
              0.247768994193226E+01
             -0.137129704927358E+01
              0.235176399475594E+01
              0.116898329030863E+01
             -0.778406126970603E+01
             -0.545733160812718E+01
             -0.516040168020239E+01
              0.338918111572794E+01
             -0.460095576553222E+00
             -0.639860111010310E+01
              0.600764599079382E+01
             -0.453986319492580E+01
              0.569400553848876E+01
             -0.316958746030257E+01
             -0.495169736409642E+01
              0.267178261095879E+01
             -0.733110136632363E+01
             -0.344763107236509E+01
              0.678410192114444E+01
              0.246493816879187E+01
             -0.409305020467558E+01
              0.588042086468225E+01
             -0.172635470203265E+01
             -0.360739008430355E+01
             -0.314961862174858E+01
             -0.560157950657282E+01
              0.276204262659977E+01
             -0.953752777106757E+01
             -0.822886232841498E+01
             -0.635298194310941E+00
             -0.309140430129359E+01
             -0.650144250402805E+01
              0.770792834975022E+01
              0.142747163653481E+02
             -0.261017272307486E+01
             -0.187514128132641E+00
             -0.669558454300401E+01
              0.680482229818702E+01
              0.214849900638171E+01
             -0.191736234118088E+01
             -0.411247425553636E+01
              0.126518667227890E+01
             -0.615562797981612E+01
             -0.114774677948503E+01
             -0.913135712769891E+01
              0.313006458486139E+01
              0.175503610150103E+01
             -0.242073101463667E+00
             -0.114262046305109E+01
             -0.399431638780280E+01
             -0.145947005063585E+01
              0.142649176397776E+02
             -0.164923968822844E+01
             -0.500321852597265E+01
             -0.709872633376924E+01
              0.146809059434816E+01
             -0.382629851059616E+01
              0.654725218059811E+00
              0.321481530883802E+01
              0.778501922820357E+00
              0.385998604444828E+01
              0.193339963761415E+01
              0.637895460266205E+01
              0.287878651624994E+01
             -0.364388820570648E+01
              0.500528595989594E+01
              0.384359597858988E+01
              0.134569024002251E+01
              0.435700305763716E+01
             -0.281365102261137E+01
              0.745184531878530E+01
              0.238788802354248E+01
             -0.333949038266435E+01
             -0.984317372382152E+00
             -0.174208995622682E+01
              0.187473401319993E+01
             -0.261421405497175E+01
             -0.924994864617616E+00
             -0.117868309273435E+01
              0.825289412123773E+01
              0.597828436647962E+01
             -0.698965811117175E+01
             -0.726490574538976E+00
             -0.552934814011342E+01
             -0.130556749886814E+01
             -0.266914810139236E+01
              0.812923063779280E+00
             -0.271025465239965E+00
             -0.291601272747497E+01
              0.131562831126811E+01
             -0.769952560704962E+00
             -0.107706844911261E+01
              0.889546795891607E+01
              0.166284466665703E+01
             -0.871400704324340E+01
             -0.458908056981863E+01
              0.992738126372743E+01
              0.236467238930827E+01
             -0.954009207326564E+00
              0.114204632913909E+02
             -0.178549473565267E+01
             -0.904120640291715E+00
             -0.139627140907675E+01
              0.158968986499897E+01
              0.326461607728547E+01
              0.538755654110986E+00
              0.311177524122692E+01
             -0.139346330279465E+01
             -0.390438904355523E+01
             -0.399492586688818E+01
             -0.510292901901219E+01
              0.473347263337221E+01
              0.165532629986145E+01
[...]
  184          redis_proj                            0.004164                          9   4
  185            m_alltoall_d                          0.004053                        9   5
  186        m_sumb_d                              0.013792                           61   3
  187      rotate_active_occupied_orbital        0.000032                              3   2
  188      force_and_stress                     46.903095                              3   2
  189        forloc                                0.144972                            3   3
  190          m_sumb_d                              0.010893                          3   4
  191        fornlr                                1.308195                            3   3
  192          rspher_all                            0.030171                          9   4
  193          phaser                                0.000003                          9   4
  194          rpro_isp                              1.159031                          9   4
  195            fftwav_mpi                            1.148742                        9   5
  196              fftwav                                1.148691                      9   6
  197                fft3d                                 0.876704                    9   7
  198            rpromu                                0.002685                        9   5
  199              rpromu_gemm                           0.000852                     45   6
  200          m_sumb_d                              0.118558                          3   4
  201        fordep                                0.004997                            3   3
  202          setdij_                               0.004855                         18   4
  203            m_sumb_d                              0.002287                       18   5
  204        setdij_                               0.013242                           60   3
  205          m_sumb_d                              0.005154                         60   4
  206        set_dd_magatom                        0.000012                            3   3
  207        set_dd_paw                            0.020660                            3   3
  208          set_rsgf_all                          0.000004                          3   4
  209          m_sumb_d                              0.020384                         21   4
  210        strkin                                0.010620                            3   3
  211          m_sumb_d                              0.001252                          3   4
  212        strelo                                0.082495                            3   3
  213          m_sumb_d                              0.009055                          6   4
  214        strnlr                                3.291913                            3   3
  215          rspher_all                            0.090548                         27   4
  216          phaser                                0.000011                         27   4
  217          rpro_isp                              2.973392                         27   4
  218            fftwav_mpi                            2.961924                       27   5
  219              fftwav                                2.961752                     27   6
  220                fft3d                                 2.473523                   27   7
  221            rpromu                                0.009799                       27   5
  222              rpromu_gemm                           0.002997                    135   6
  223          m_sumb_d                              0.226324                          3   4
  224        fft3d_mpi                             6.584225                          213   3
  225          fftbrc_mpi                            6.055517                        213   4
  226            fftbas_plan_mpi                       6.054893                      213   5
  227              dfftw_execute                         2.081573                    639   6
  228              map_forward                           1.833445                    210   6
  229                map_gather                            0.208091                  105   7
  230                m_alltoallv_z                         0.619511                  105   7
  231                map_scatter                           1.003123                  105   7
  232              map_backward                          1.979488                    216   6
  233                map_gather                            0.746427                  108   7
  234                m_alltoallv_z                         0.857034                  108   7
  235                map_scatter                           0.372921                  108   7
  236        ggaall_grid                           0.395412                            3   3
  237        m_sumb_d                              0.029244                           18   3
  238        forhar                                0.037374                            3   3
  239          m_sumb_d                              0.002892                          3   4
  240        strehar                               0.134552                            3   3
  241          m_sumb_d                              0.082836                          3   4
  242        m_bcast_d                             0.005673                            6   3
  243      potlok                              109.378224                              5   2
  244        fft3d_mpi                            37.042533                         1133   3
  245          fftbrc_mpi                           34.051705                       1133   4
  246            fftbas_plan_mpi                      34.048016                     1133   5
  247              dfftw_execute                        11.014593                   3399   6
  248              map_forward                          11.642411                   1138   6
  249                map_gather                            1.765331                  574   7
  250                m_alltoallv_z                         4.127577                  574   7
  251                map_scatter                           5.731889                  574   7
  252              map_backward                         10.590746                   1128   6
  253                map_gather                            3.868323                  564   7
  254                m_alltoallv_z                         4.873453                  564   7
  255                map_scatter                           1.834318                  564   7
  256        ggaall_grid                           6.768766                          101   3
  257        m_sumb_d                              0.079372                          510   3
  258        pothar                                0.027579                            5   3
  259          m_sumb_d                              0.001187                          5   4
  260        m_bcast_d                             0.140095                            5   3
  261      potlok_metagga                        0.000023                              5   2
  262      set_dd_magatom                        0.000003                              3   2
  263      set_dd_paw                            0.035878                              5   2
  264        set_rsgf_all                          0.000006                            5   3
  265        m_sumb_d                              0.034990                           35   3
  266      wavpre_noio                           0.192281                              2   2
  267        stufak                                0.048212                            2   3
  268      eddiag                                0.732008                              2   2
  269        overl                                 0.000028                            2   3
  270        redis_proj                            0.003514                            6   3
  271          m_alltoall_d                          0.003448                          6   4
  272        fftwav_mpi                            0.317598                            2   3
  273          fftwav                                0.317588                          2   4
  274            fft3d                                 0.228603                        2   5
  275        hamilt_local                          0.306700                            2   3
  276          vhamil                                0.117184                          2   4
  277          kinhamil                              0.189480                          2   4
  278            fftext_mpi                            0.186249                        2   5
  279              fft3d_mpi                             0.168760                      2   6
  280                fft3d                                 0.168703                    2   7
  281        redis_pw                              0.062295                            6   3
  282          m_alltoall_d                          0.049448                          6   4
  283        orth1                                 0.007808                            2   3
  284        m_sumb_d                              0.002699                            2   3
  285        shift_bands_between_low_high          0.000002                            2   3
  286        lincom                                0.011123                            2   3
 
 Flat profile
 ============
 
             routine name                   CPU           calls
 ---------------------------------------------------------------
 potlok                                672.091032          57
 total_time                            401.820250           1
 dfftw_execute                          52.748685       15771
 m_alltoallv_z                          37.250848        5369
 force_and_stress                       34.839509           3
 map_scatter                            34.323959        5369
 ggaall_grid                            31.813256         156
 map_gather                             24.547853        5369
 fft3d                                  20.835134         234
 fft3d_mpi                              20.280582        5314
 m_sumb_d                                8.339751        3050
 edwav                                   5.342073          52
 fftwav                                  4.343480         177
 soft_charge                             4.021921          55
 eccp                                    3.951932         104
 fftbas_plan_mpi                         3.853638        5257
 m_alltoall_d                            2.792845         929
 vhamil                                  1.862468          31
 m_bcast_d                               1.635049          71
 lincom                                  0.816058         164
 w1_dscal                                0.645247          26
 pw_charge                               0.604630          55
 redis_pw                                0.596493         255
 augmentation_charge                     0.545267          55
 m_bcast_z                               0.499422          65
 fftext_mpi                              0.356616          57
 pothar                                  0.302253          57
 orth1                                   0.289249          86
 fft_gq                                  0.190710          55
 set_charge                              0.168277          55
 wavpre_noio                             0.144069           2
 eddiag                                  0.136364          31
 forloc                                  0.134079           3
 elmin_all                               0.132079           3
 rspher_all                              0.129184          40
 map_forward                             0.074217        5206
 stufak                                  0.074206           3
 strelo                                  0.073440           3
 map_backward                            0.069726        5308
 kinhamil                                0.058227          31
 strehar                                 0.051716           3
 inisym                                  0.042492           1
 forhar                                  0.034482           3
 setdij_                                 0.026868         136
 rpro_isp                                0.024239          39
 choleski                                0.021920          55
 fftbrc_mpi                              0.017978        5257
 rpro1                                   0.016370          26
 racc0                                   0.013873          26
 rpromu_gemm                             0.010978         195
 set_dd_paw                              0.009650          60
 rpromu                                  0.009513          39
 strkin                                  0.009368           3
 redis_proj                              0.009216         674
 orthch                                  0.005916          55
 fewald                                  0.005738           3
 densta                                  0.005136          56
 brgrid                                  0.003919           1
 overl                                   0.003770         138
 rsp                                     0.001870           3
 strnlr                                  0.001638           3
 depsum                                  0.001380          55
 fftwav_mpi                              0.001070         177
 redis_pw_all                            0.000709          52
 hamilt_local                            0.000545          31
 fornlr                                  0.000432           3
 rcp                                     0.000316           3
 redis_pw_over_bands                     0.000264          57
 potlok_metagga                          0.000240          57
 crpa_reader                             0.000239           1
 fordep                                  0.000142           3
 set_rsgf_all                            0.000096          60
 proall                                  0.000051           3
 phaser                                  0.000038          65
 rotate_active_occupied_orbital          0.000032           3
 posmap                                  0.000019           2
 set_dd_magatom                          0.000015           6
 vectorpot                               0.000015           1
 shift_bands_between_low_high            0.000005           5
 ---------------------------------------------------------------
  summed up times    1373.06633806229     
 
 Accumulative profile
 ====================
 
             routine name                   CPU           calls
 ---------------------------------------------------------------
 total_time                           1373.066338           1
 potlok                                865.000213          57
 elmin_all                             809.347866           3
 fft3d_mpi                             178.128449        5314
 fftbrc_mpi                            152.886905        5257
 fftbas_plan_mpi                       152.868927        5257
 dfftw_execute                          52.748685       15771
 map_forward                            49.335618        5206
 map_backward                           46.930985        5308
 force_and_stress                       46.903095           3
 m_alltoallv_z                          37.250848        5369
 map_scatter                            34.323959        5369
 ggaall_grid                            31.813256         156
 edwav                                  27.186360          52
 map_gather                             24.547853        5369
 set_charge                             21.089028          55
 fft3d                                  20.835134         234
 fftwav_mpi                             20.218722         177
 fftwav                                 20.217652         177
 soft_charge                            18.707785          55
 m_sumb_d                                8.339751        3050
 eddiag                                  6.650134          31
 fft_gq                                  5.989918          55
 fftext_mpi                              5.318944          57
 hamilt_local                            4.897425          31
 rpro_isp                                4.614248          39
 eccp                                    3.951932         104
 strnlr                                  3.291913           3
 kinhamil                                3.034412          31
 m_alltoall_d                            2.792845         929
 redis_pw                                2.772679         255
 augmentation_charge                     2.190444          55
 vhamil                                  1.862468          31
 m_bcast_d                               1.635049          71
 fornlr                                  1.308195           3
 lincom                                  0.816058         164
 w1_dscal                                0.645247          26
 redis_proj                              0.625875         674
 pw_charge                               0.604630          55
 orthch                                  0.562474          55
 redis_pw_over_bands                     0.539656          57
 redis_pw_all                            0.539392          52
 m_bcast_z                               0.499422          65
 proall                                  0.481879           3
 set_dd_paw                              0.424847          60
 pothar                                  0.329624          57
 orth1                                   0.289249          86
 densta                                  0.208331          56
 wavpre_noio                             0.192281           2
 forloc                                  0.144972           3
 strehar                                 0.134552           3
 rspher_all                              0.129184          40
 strelo                                  0.082495           3
 stufak                                  0.074206           3
 setdij_                                 0.055935         136
 inisym                                  0.042511           1
 forhar                                  0.037374           3
 depsum                                  0.022521          55
 choleski                                0.021920          55
 rpromu                                  0.020491          39
 rpro1                                   0.016370          26
 racc0                                   0.013873          26
 fewald                                  0.013250           3
 rpromu_gemm                             0.010978         195
 strkin                                  0.010620           3
 fordep                                  0.004997           3
 brgrid                                  0.003919           1
 overl                                   0.003770         138
 rsp                                     0.001870           3
 rcp                                     0.000316           3
 potlok_metagga                          0.000240          57
 crpa_reader                             0.000239           1
 set_rsgf_all                            0.000096          60
 phaser                                  0.000038          65
 rotate_active_occupied_orbital          0.000032           3
 posmap                                  0.000019           2
 set_dd_magatom                          0.000015           6
 vectorpot                               0.000015           1
 shift_bands_between_low_high            0.000005           5
 ---------------------------------------------------------------
 
Profiling took   0.110292  0.043567  0.012732  0.012179 seconds
Profiling took   0.171189 seconds
