 vasp.6.3.2 27Jun22 (build Jan 03 2024 23:25:20) gamma-only                     
  
 executed on           IFC15_impi date 2024.06.04  04:42:10
 running  192 mpi-ranks, with    1 threads/rank
 distrk:  each k-point on  192 cores,    1 groups
 distr:  one band on NCORE=   4 cores,   48 groups


--------------------------------------------------------------------------------------------------------


 INCAR:
   ENCUT = 500.000000
   SIGMA = 0.010000
   EDIFF = 1.00e-05
   ALGO = A
   ISMEAR = 0
   NELM = 200
   NSW = 500
   NCORE = 4
   LCHARG = .FALSE.
   LWAVE = .FALSE.
   LREAL = Auto
   IBRION = 2
   EDIFFG = -0.05
   GGA = BF
   LUSE_VDW = .TRUE.
   ZAB_VDW = -1.8867
   LBEEFENS = .TRUE.

 POTCAR:    PAW_PBE C 08Apr2002                   
 POTCAR:    PAW_PBE H 15Jun2001                   
 -----------------------------------------------------------------------------
|                                                                             |
|               ----> ADVICE to this user running VASP <----                  |
|                                                                             |
|     You have switched on vdW-DFT.                                           |
|     This routine was written and supplied by Jiri Klimes. We recommend      |
|     that you carefully read and cite the following publications:            |
|       J. Klimes, D.R. Bowler, A. Michelides                                 |
|          J. Phys.: Cond Matt. 22 022201 (2010)                              |
|       J. Klimes, D.R. Bowler, A. Michelides                                 |
|          Phys. Rev. B. 83, 195131 (2011)                                    |
|     and references therein.                                                 |
|                                                                             |
 -----------------------------------------------------------------------------

 POTCAR:    PAW_PBE C 08Apr2002                   
   SHA256 =  253f7b50bb8d59471dbedb8285d89021f4a42ed1a2c5d38a03a736e69125dd95 C/POTCAR              
   COPYR  = (c) Copyright 08Apr2002 Georg Kresse                                                    
   COPYR  = This file is part of the software VASP. Any use, copying, and all other rights are regul
   COPYR  = If you do not have a valid VASP license, you may not use, copy or distribute this file. 
   VRHFIN =C: s2p2                                                                                  
   LEXCH  = PE                                                                                      
   EATOM  =   147.1560 eV,   10.8157 Ry                                                             
                                                                                                    
   TITEL  = PAW_PBE C 08Apr2002                                                                     
   LULTRA =        F    use ultrasoft PP ?                                                          
   IUNSCR =        1    unscreen: 0-lin 1-nonlin 2-no                                               
   RPACOR =    1.200    partial core radius                                                         
   POMASS =   12.011; ZVAL   =    4.000    mass and valenz                                          
   RCORE  =    1.500    outmost cutoff radius                                                       
   RWIGS  =    1.630; RWIGS  =    0.863    wigner-seitz radius (au A)                               
   ENMAX  =  400.000; ENMIN  =  300.000 eV                                                          
   ICORE  =        2    local potential                                                             
   LCOR   =        T    correct aug charges                                                         
   LPAW   =        T    paw PP                                                                      
   EAUG   =  644.873                                                                                
   DEXC   =    0.000                                                                                
   RMAX   =    1.529    core radius for proj-oper                                                   
   RAUG   =    1.300    factor for augmentation sphere                                              
   RDEP   =    1.501    radius for radial grids                                                     
   RDEPT  =    1.300    core radius for aug-charge                                                  
                                                                                                    
   Atomic configuration                                                                             
    4 entries                                                                                       
     n  l   j            E        occ.                                                              
     1  0  0.50      -273.3789   2.0000                                                             
     2  0  0.50       -13.7508   2.0000                                                             
     2  1  0.50        -5.2854   2.0000                                                             
     3  2  1.50        -5.4423   0.0000                                                             
   Description                                                                                      
     l       E           TYP  RCUT    TYP  RCUT                                                     
     0    -13.7508458     23  1.200                                                                 
     0     -8.2022199     23  1.200                                                                 
     1     -5.2854383     23  1.500                                                                 
     1     34.0145650     23  1.500                                                                 
     2     -5.4423304      7  1.500                                                                 
  local pseudopotential read in
  partial core-charges read in
  partial kinetic energy density read in
  atomic valenz-charges read in
  non local Contribution for L=           0  read in
    real space projection operators read in
  non local Contribution for L=           0  read in
    real space projection operators read in
  non local Contribution for L=           1  read in
    real space projection operators read in
  non local Contribution for L=           1  read in
    real space projection operators read in
    PAW grid and wavefunctions read in
 
   number of l-projection  operators is LMAX  =           4
   number of lm-projection operators is LMMAX =           8
 
 POTCAR:    PAW_PBE H 15Jun2001                   
   SHA256 =  030f79b5d3ab3cf0e668861823c8fb652ff669f3e15e46930bd03bfd63a607b6 H/POTCAR              
   COPYR  = (c) Copyright 15Jun2001 Georg Kresse                                                    
   COPYR  = This file is part of the software VASP. Any use, copying, and all other rights are regul
   COPYR  = If you do not have a valid VASP license, you may not use, copy or distribute this file. 
   VRHFIN =H: ultrasoft test                                                                        
   LEXCH  = PE                                                                                      
   EATOM  =    12.4884 eV,    0.9179 Ry                                                             
                                                                                                    
   TITEL  = PAW_PBE H 15Jun2001                                                                     
   LULTRA =        F    use ultrasoft PP ?                                                          
   IUNSCR =        0    unscreen: 0-lin 1-nonlin 2-no                                               
   RPACOR =    0.000    partial core radius                                                         
   POMASS =    1.000; ZVAL   =    1.000    mass and valenz                                          
   RCORE  =    1.100    outmost cutoff radius                                                       
   RWIGS  =    0.700; RWIGS  =    0.370    wigner-seitz radius (au A)                               
   ENMAX  =  250.000; ENMIN  =  200.000 eV                                                          
   RCLOC  =    0.701    cutoff for local pot                                                        
   LCOR   =        T    correct aug charges                                                         
   LPAW   =        T    paw PP                                                                      
   EAUG   =  400.000                                                                                
   RMAX   =    1.123    core radius for proj-oper                                                   
   RAUG   =    1.200    factor for augmentation sphere                                              
   RDEP   =    1.112    radius for radial grids                                                     
   RDEPT  =    0.926    core radius for aug-charge                                                  
                                                                                                    
   Atomic configuration                                                                             
    2 entries                                                                                       
     n  l   j            E        occ.                                                              
     1  0  0.50        -6.4927   1.0000                                                             
     2  1  0.50        -3.4015   0.0000                                                             
   Description                                                                                      
     l       E           TYP  RCUT    TYP  RCUT                                                     
     0     -6.4927494     23  1.100                                                                 
     0      6.8029130     23  1.100                                                                 
     1     -4.0817478     23  1.100                                                                 
  local pseudopotential read in
  atomic valenz-charges read in
  non local Contribution for L=           0  read in
    real space projection operators read in
  non local Contribution for L=           0  read in
    real space projection operators read in
  non local Contribution for L=           1  read in
    real space projection operators read in
    PAW grid and wavefunctions read in
 
   number of l-projection  operators is LMAX  =           3
   number of lm-projection operators is LMMAX =           5
 
 Optimization of the real space projectors (new method)

 maximal supplied QI-value         = 25.13
 optimisation between [QCUT,QGAM] = [ 11.31, 22.87] = [ 35.82,146.48] Ry 
 Optimized for a Real-space Cutoff    1.00 Angstroem

   l    n(q)    QCUT    max X(q) W(low)/X(q) W(high)/X(q)  e(spline) 
   0      7    11.310   115.676    0.43E-03    0.13E-02    0.19E-06
   0      7    11.310    87.132    0.43E-03    0.13E-02    0.18E-06
   1      6    11.310     4.429    0.42E-03    0.74E-03    0.11E-06
   1      6    11.310     2.733    0.34E-03    0.55E-03    0.92E-07
 Optimization of the real space projectors (new method)

 maximal supplied QI-value         = 34.20
 optimisation between [QCUT,QGAM] = [ 11.29, 22.57] = [ 35.68,142.71] Ry 
 Optimized for a Real-space Cutoff    1.16 Angstroem

   l    n(q)    QCUT    max X(q) W(low)/X(q) W(high)/X(q)  e(spline) 
   0      8    11.287    19.460    0.40E-03    0.73E-03    0.16E-06
   0      8    11.287    12.209    0.38E-03    0.70E-03    0.15E-06
   1      7    11.287     4.655    0.22E-03    0.25E-04    0.22E-06
 -----------------------------------------------------------------------------
|                                                                             |
|               ----> ADVICE to this user running VASP <----                  |
|                                                                             |
|     You enforced a specific xc type in the INCAR file but a different       |
|     type was found in the POTCAR file.                                      |
|     I HOPE YOU KNOW WHAT YOU ARE DOING!                                     |
|                                                                             |
 -----------------------------------------------------------------------------

  PAW_PBE C 08Apr2002                   :
 energy of atom  1       EATOM= -147.1560
 kinetic energy error for atom=    0.0076 (will be added to EATOM!!)
  PAW_PBE H 15Jun2001                   :
 energy of atom  2       EATOM=  -12.4884
 kinetic energy error for atom=    0.0020 (will be added to EATOM!!)
 
 
 POSCAR: C  H
  positions in cartesian coordinates
  No initial velocities read in
 exchange correlation table for  LEXCH =       17
   RHO(1)=    0.500       N(1)  =     2000
   RHO(2)=  100.500       N(2)  =     4000

 VTST: version 4.1, (05/19/21)

 CHAIN: initializing optimizer
 
 OPT: Using VASP Conjugate-Gradient optimizer
 CHAIN: Read ICHAIN            0
 
 POSCAR: C  H
  positions in cartesian coordinates
  No initial velocities read in
 


--------------------------------------------------------------------------------------------------------


 ion  position               nearest neighbor table
   1  0.500  0.482  0.415-  17 1.10  22 1.10   7 1.53   6 1.53
   2  0.500  0.514  0.628-   9 1.09  16 1.09  23 1.09   3 1.53
   3  0.500  0.483  0.586-  11 1.10  10 1.10   2 1.53   5 1.53
   4  0.500  0.483  0.500-  15 1.10  14 1.10   5 1.53   6 1.53
   5  0.500  0.513  0.543-  13 1.10  12 1.10   4 1.53   3 1.53
   6  0.500  0.512  0.457-  20 1.10  21 1.10   4 1.53   1 1.53
   7  0.500  0.512  0.372-   8 1.09  18 1.09  19 1.09   1 1.53
   8  0.500  0.489  0.342-   7 1.09
   9  0.500  0.491  0.658-   2 1.09
  10  0.537  0.459  0.586-   3 1.10
  11  0.463  0.459  0.586-   3 1.10
  12  0.463  0.536  0.543-   5 1.10
  13  0.537  0.536  0.543-   5 1.10
  14  0.537  0.459  0.500-   4 1.10
  15  0.463  0.459  0.500-   4 1.10
  16  0.537  0.537  0.629-   2 1.09
  17  0.463  0.458  0.415-   1 1.10
  18  0.537  0.535  0.371-   7 1.09
  19  0.463  0.535  0.371-   7 1.09
  20  0.463  0.536  0.457-   6 1.10
  21  0.537  0.536  0.457-   6 1.10
  22  0.537  0.458  0.415-   1 1.10
  23  0.463  0.537  0.629-   2 1.09
 
  LATTYP: Found a simple orthorhombic cell.
 ALAT       =    23.6707801819
 B/A-ratio  =     1.1785113316
 C/A-ratio  =     1.2673853489
  
  Lattice vectors:
  
 A1 = (  23.6707801819,   0.0000000000,   0.0000000000)
 A2 = (   0.0000000000,  27.8962826733,   0.0000000000)
 A3 = (   0.0000000000,   0.0000000000,  30.0000000000)


Analysis of symmetry for initial positions (statically):
=====================================================================
 Subroutine PRICEL returns:
 Original cell was already a primitive cell.
 

 Routine SETGRP: Setting up the symmetry group for a 
 simple orthorhombic supercell.


 Subroutine GETGRP returns: Found  1 space group operations
 (whereof  1 operations were pure point group operations)
 out of a pool of  8 trial point group operations.


The static configuration has the point symmetry C_1 .


Analysis of symmetry for dynamics (positions and initial velocities):
=====================================================================
 Subroutine PRICEL returns:
 Original cell was already a primitive cell.
 

 Routine SETGRP: Setting up the symmetry group for a 
 simple orthorhombic supercell.


 Subroutine GETGRP returns: Found  1 space group operations
 (whereof  1 operations were pure point group operations)
 out of a pool of  8 trial point group operations.


The dynamic configuration has the point symmetry C_1 .


 Subroutine INISYM returns: Found  1 space group operations
 (whereof  1 operations are pure point group operations),
 and found     1 'primitive' translations


----------------------------------------------------------------------------------------

                                     Primitive cell                                     

  volume of cell :   19809.8033

  direct lattice vectors                    reciprocal lattice vectors
    23.670780182  0.000000000  0.000000000     0.042246178  0.000000000  0.000000000
     0.000000000 27.896282673  0.000000000     0.000000000  0.035847070  0.000000000
     0.000000000  0.000000000 30.000000000     0.000000000  0.000000000  0.033333333

  length of vectors
    23.670780182 27.896282673 30.000000000     0.042246178  0.035847070  0.033333333

  position of ions in fractional coordinates (direct lattice)
     0.499938227  0.481945180  0.414777415
     0.500055545  0.513558004  0.627828024
     0.500043455  0.482857334  0.585512337
     0.500021276  0.482626985  0.500026044
     0.500051519  0.512744320  0.542638959
     0.499962770  0.512469085  0.457213952
     0.499932743  0.511951067  0.372041409
     0.499927041  0.489419606  0.342223381
     0.500045875  0.491470618  0.657901818
     0.537055406  0.459127507  0.585526073
     0.463018783  0.459169581  0.585535600
     0.462936067  0.536353830  0.542585355
     0.537148656  0.536359068  0.542574920
     0.537099647  0.458977146  0.499975075
     0.462957027  0.458964455  0.500010746
     0.537420006  0.536607481  0.629044227
     0.462883836  0.458329932  0.415054371
     0.537212643  0.535095981  0.370582328
     0.462644005  0.535095462  0.370592876
     0.462819096  0.536039846  0.456946712
     0.537082632  0.536074798  0.456911078
     0.536993996  0.458326962  0.415037182
     0.462689319  0.536608196  0.629043793

  ion indices of the primitive-cell ions
   primitive index   ion index
                 1           1
                 2           2
                 3           3
                 4           4
                 5           5
                 6           6
                 7           7
                 8           8
                 9           9
                10          10
                11          11
                12          12
                13          13
                14          14
                15          15
                16          16
                17          17
                18          18
                19          19
                20          20
                21          21
                22          22
                23          23

----------------------------------------------------------------------------------------

 
 
 KPOINTS: KPOINTS created by Atomic Simulation Env

Automatic generation of k-mesh.
 Grid dimensions read from file:
 generate k-points for:    1    1    1

 Generating k-lattice:

  Cartesian coordinates                     Fractional coordinates (reciprocal lattice)
     0.042246178  0.000000000  0.000000000     1.000000000  0.000000000  0.000000000
     0.000000000  0.035847070  0.000000000     0.000000000  1.000000000  0.000000000
     0.000000000  0.000000000  0.033333333     0.000000000  0.000000000  1.000000000

  Length of vectors
     0.042246178  0.035847070  0.033333333

  Shift w.r.t. Gamma in fractional coordinates (k-lattice)
     0.000000000  0.000000000  0.000000000

 
 Subroutine IBZKPT returns following result:
 ===========================================
 
 Found      1 irreducible k-points:
 
 Following reciprocal coordinates:
            Coordinates               Weight
  0.000000  0.000000  0.000000      1.000000
 
 Following cartesian coordinates:
            Coordinates               Weight
  0.000000  0.000000  0.000000      1.000000
 


--------------------------------------------------------------------------------------------------------




 Dimension of arrays:
   k-points           NKPTS =      1   k-points in BZ     NKDIM =      1   number of bands    NBANDS=     48
   number of dos      NEDOS =    301   number of ions     NIONS =     23
   non local maximal  LDIM  =      4   non local SUM 2l+1 LMDIM =      8
   total plane-waves  NPLWV = ******
   max r-space proj   IRMAX =   1304   max aug-charges    IRDMAX=   2441
   dimension x,y,z NGX =   140 NGY =  160 NGZ =  168
   dimension x,y,z NGXF=   280 NGYF=  320 NGZF=  336
   support grid    NGXF=   280 NGYF=  320 NGZF=  336
   ions per type =               7  16
   NGX,Y,Z   is equivalent  to a cutoff of   9.83,  9.54,  9.31 a.u.
   NGXF,Y,Z  is equivalent  to a cutoff of  19.67, 19.07, 18.62 a.u.

 SYSTEM =  unknown system                          
 POSCAR =  C  H                                    

 Startparameter for this run:
   NWRITE =      2    write-flag & timer
   PREC   = normal    normal or accurate (medium, high low for compatibility)
   ISTART =      0    job   : 0-new  1-cont  2-samecut
   ICHARG =      2    charge: 1-file 2-atom 10-const
   ISPIN  =      1    spin polarized calculation?
   LNONCOLLINEAR =      F non collinear calculations
   LSORBIT =      F    spin-orbit coupling
   INIWAV =      1    electr: 0-lowe 1-rand  2-diag
   LASPH  =      F    aspherical Exc in radial PAW
 Electronic Relaxation 1
   ENCUT  =  500.0 eV  36.75 Ry    6.06 a.u.  43.16 50.86 54.70*2*pi/ulx,y,z
   ENINI  =  500.0     initial cutoff
   ENAUG  =  644.9 eV  augmentation charge cutoff
   NELM   =    200;   NELMIN=  2; NELMDL= -5     # of ELM steps 
   EDIFF  = 0.1E-04   stopping-criterion for ELM
   LREAL  =      T    real-space projection
   NLSPLINE    = F    spline interpolate recip. space projectors
   LCOMPAT=      F    compatible to vasp.4.4
   GGA_COMPAT  = T    GGA compatible to vasp.4.4-vasp.4.6
   LMAXPAW     = -100 max onsite density
   LMAXMIX     =    2 max onsite mixed and CHGCAR
   VOSKOWN=      0    Vosko Wilk Nusair interpolation
   ROPT   =   -0.00050  -0.00050
 Ionic relaxation
   EDIFFG = -.5E-01   stopping-criterion for IOM
   NSW    =    500    number of steps for IOM
   NBLOCK =      1;   KBLOCK =    500    inner block; outer block 
   IBRION =      2    ionic relax: 0-MD 1-quasi-New 2-CG
   NFREE  =      1    steps in history (QN), initial steepest desc. (CG)
   ISIF   =      2    stress and relaxation
   IWAVPR =     11    prediction:  0-non 1-charg 2-wave 3-comb
   ISYM   =      2    0-nonsym 1-usesym 2-fastsym
   LCORR  =      T    Harris-Foulkes like correction to forces

   POTIM  = 0.5000    time-step for ionic-motion
   TEIN   =    0.0    initial temperature
   TEBEG  =    0.0;   TEEND  =   0.0 temperature during run
   SMASS  =  -3.00    Nose mass-parameter (am)
   estimated Nose-frequenzy (Omega)   =  0.10E-29 period in steps = 0.13E+47 mass=  -0.128E-25a.u.
   SCALEE = 1.0000    scale energy and forces
   NPACO  =    256;   APACO  = 10.0  distance and # of slots for P.C.
   PSTRESS=    0.0 pullay stress

  Mass of Ions in am
   POMASS =  12.01  1.00
  Ionic Valenz
   ZVAL   =   4.00  1.00
  Atomic Wigner-Seitz radii
   RWIGS  =  -1.00 -1.00
  virtual crystal weights 
   VCA    =   1.00  1.00
   NELECT =      44.0000    total number of electrons
   NUPDOWN=      -1.0000    fix difference up-down

 DOS related values:
   EMIN   =  10.00;   EMAX   =-10.00  energy-range for DOS
   EFERMI =   0.00
   ISMEAR =     0;   SIGMA  =   0.01  broadening in eV -4-tet -1-fermi 0-gaus

 Electronic relaxation 2 (details)
   IALGO  =     58    algorithm
   LDIAG  =      T    sub-space diagonalisation (order eigenvalues)
   LSUBROT=      F    optimize rotation matrix (better conditioning)
   TURBO    =      0    0=normal 1=particle mesh
   IRESTART =      0    0=no restart 2=restart with 2 vectors
   NREBOOT  =      0    no. of reboots
   NMIN     =      0    reboot dimension
   EREF     =   0.00    reference energy to select bands
   IMIX   =      4    mixing-type and parameters
     AMIX     =   0.40;   BMIX     =  1.00
     AMIX_MAG =   1.60;   BMIX_MAG =  1.00
     AMIN     =   0.10
     WC   =   100.;   INIMIX=   1;  MIXPRE=   1;  MAXMIX= -45

 Intra band minimization:
   WEIMIN = 0.0010     energy-eigenvalue tresh-hold
   EBREAK =  0.52E-07  absolut break condition
   DEPER  =   0.30     relativ break condition  

   TIME   =   0.40     timestep for ELM

  volume/ion in A,a.u.               =     861.30      5812.31
  Fermi-wavevector in a.u.,A,eV,Ry     =   0.213599  0.403643  0.620759  0.045624
  Thomas-Fermi vector in A             =   0.985493
 
 Write flags
   LWAVE        =      F    write WAVECAR
   LDOWNSAMPLE  =      F    k-point downsampling of WAVECAR
   LCHARG       =      F    write CHGCAR
   LVTOT        =      F    write LOCPOT, total local potential
   LVHAR        =      F    write LOCPOT, Hartree potential only
   LELF         =      F    write electronic localiz. function (ELF)
   LORBIT       =      0    0 simple, 1 ext, 2 COOP (PROOUT), +10 PAW based schemes


 Dipole corrections
   LMONO  =      F    monopole corrections only (constant potential shift)
   LDIPOL =      F    correct potential (dipole corrections)
   IDIPOL =      0    1-x, 2-y, 3-z, 4-all directions 
   EPSILON=  1.0000000 bulk dielectric constant

 Exchange correlation treatment:
   GGA     =    BF    GGA type
   LEXCH   =    17    internal setting for exchange type
   LIBXC   =     F    Libxc                    
   VOSKOWN =     0    Vosko Wilk Nusair interpolation
   LHFCALC =     F    Hartree Fock is set to
   LHFONE  =     F    Hartree Fock one center treatment
   AEXX    =    0.0000 exact exchange contribution

 vdW DFT:
   LUSE_VDW   =     T    switch on vdW DFT
   Zab_VDW    =******    correlation parameter
   PARAM1     =0.1234
   PARAM2     =1.0000
   PARAM3     =0.0000
   -- rVV10 --
   BPARAM     = 6.3000
   CPARAM     = 0.0093

 Linear response parameters
   LEPSILON=     F    determine dielectric tensor
   LRPA    =     F    only Hartree local field effects (RPA)
   LNABLA  =     F    use nabla operator in PAW spheres
   LVEL    =     F    velocity operator in full k-point grid
   CSHIFT  =0.1000    complex shift for real part using Kramers Kronig
   OMEGAMAX=  -1.0    maximum frequency
   DEG_THRESHOLD= 0.2000000E-02 threshold for treating states as degnerate
   RTIME   =   -0.100 relaxation time in fs
  (WPLASMAI=    0.000 imaginary part of plasma frequency in eV, 0.658/RTIME)
   DFIELD  = 0.0000000 0.0000000 0.0000000 field for delta impulse in time
 
  Optional k-point grid parameters
   LKPOINTS_OPT  =     F    use optional k-point grid
   KPOINTS_OPT_MODE=     1    mode for optional k-point grid
 
 Orbital magnetization related:
   ORBITALMAG=     F  switch on orbital magnetization
   LCHIMAG   =     F  perturbation theory with respect to B field
   DQ        =  0.001000  dq finite difference perturbation B field
   LLRAUG    =     F  two centre corrections for induced B field



--------------------------------------------------------------------------------------------------------


 conjugate gradient relaxation of ions
 charge density and potential will be updated during run
 non-spin polarized calculation
 Conjugate gradient for all bands (Freysoldt, et al. PRB 79, 241103 (2009))
 preconditioned conjugated gradient                                        
 perform sub-space diagonalisation
    before iterative eigenvector-optimisation
 modified Broyden-mixing scheme, WC =      100.0
 initial mixing is a Kerker type mixing with AMIX =  0.4000 and BMIX =      1.0000
 Hartree-type preconditioning will be used
 using additional bands           26
 real space projection scheme for non local part
 use partial core corrections
 no Harris-corrections to forces 
 use gradient corrections 
 use of overlap-Matrix (Vanderbilt PP)
 Gauss-broadening in eV      SIGMA  =   0.01


--------------------------------------------------------------------------------------------------------


  energy-cutoff  :      500.00
  volume of cell :    19809.80
      direct lattice vectors                 reciprocal lattice vectors
    23.670780182  0.000000000  0.000000000     0.042246178  0.000000000  0.000000000
     0.000000000 27.896282673  0.000000000     0.000000000  0.035847070  0.000000000
     0.000000000  0.000000000 30.000000000     0.000000000  0.000000000  0.033333333

  length of vectors
    23.670780182 27.896282673 30.000000000     0.042246178  0.035847070  0.033333333


 
 k-points in units of 2pi/SCALE and weight: KPOINTS created by Atomic Simulation Env
   0.00000000  0.00000000  0.00000000       1.000
 
 k-points in reciprocal lattice and weights: KPOINTS created by Atomic Simulation Env
   0.00000000  0.00000000  0.00000000       1.000
 
 position of ions in fractional coordinates (direct lattice) 
   0.49993823  0.48194518  0.41477742
   0.50005555  0.51355800  0.62782802
   0.50004346  0.48285733  0.58551234
   0.50002128  0.48262698  0.50002604
   0.50005152  0.51274432  0.54263896
   0.49996277  0.51246909  0.45721395
   0.49993274  0.51195107  0.37204141
   0.49992704  0.48941961  0.34222338
   0.50004588  0.49147062  0.65790182
   0.53705541  0.45912751  0.58552607
   0.46301878  0.45916958  0.58553560
   0.46293607  0.53635383  0.54258536
   0.53714866  0.53635907  0.54257492
   0.53709965  0.45897715  0.49997507
   0.46295703  0.45896445  0.50001075
   0.53742001  0.53660748  0.62904423
   0.46288384  0.45832993  0.41505437
   0.53721264  0.53509598  0.37058233
   0.46264400  0.53509546  0.37059288
   0.46281910  0.53603985  0.45694671
   0.53708263  0.53607480  0.45691108
   0.53699400  0.45832696  0.41503718
   0.46268932  0.53660820  0.62904379
 
 position of ions in cartesian coordinates  (Angst):
  11.83392788 13.44447898 12.44332246
  11.83670489 14.32635924 18.83484071
  11.83641871 13.46992468 17.56537012
  11.83589372 13.46349879 15.00078132
  11.83660958 14.30366049 16.27916876
  11.83450883 14.29598247 13.71641856
  11.83379806 14.28153167 11.16124227
  11.83366310 13.65298767 10.26670143
  11.83647599 13.71020328 19.73705453
  12.71252047 12.80795073 17.56578220
  10.96001582 12.80912443 17.56606799
  10.95805788 14.96227806 16.27756065
  12.71472776 14.96242417 16.27724759
  12.71356768 12.80375620 14.99925224
  10.95855401 12.80340217 15.00032237
  12.72115083 14.96935399 18.87132680
  10.95682152 12.78570133 12.45163114
  12.71624238 14.92718875 11.11746985
  10.95114454 14.92717426 11.11778627
  10.95528908 14.95351907 13.70840135
  12.71316492 14.95449411 13.70733234
  12.71106684 12.78561850 12.45111545
  10.95221717 14.96937393 18.87131380
 


--------------------------------------------------------------------------------------------------------


 use parallel FFT for orbitals z direction half grid
 k-point   1 :   0.0000 0.0000 0.0000  plane waves:  251494

 maximum and minimum number of plane-waves per node :     62879    62871

 maximum number of plane-waves:    251494
 maximum index in each direction: 
   IXMAX=   43   IYMAX=   50   IZMAX=   54
   IXMIN=  -43   IYMIN=  -50   IZMIN=    0


 real space projection operators:
  total allocation   :       1100.51 KBytes
  max/ min on nodes  :        277.59        268.02


 parallel 3D FFT for wavefunctions:
    minimum data exchange during FFTs selected (reduces bandwidth)
 parallel 3D FFT for charge:
    minimum data exchange during FFTs selected (reduces bandwidth)


 total amount of memory used by VASP MPI-rank0   110160. kBytes
=======================================================================

   base      :      30000. kBytes
   nonlr-proj:        329. kBytes
   fftplans  :      26989. kBytes
   grid      :      49815. kBytes
   one-center:          9. kBytes
   wavefun   :       3018. kBytes
 
     INWAV:  cpu time      0.0005: real time      0.0007
 Broyden mixing: mesh for mixing (old mesh)
   NGX = 87   NGY =101   NGZ =109
  (NGX  =280   NGY  =320   NGZ  =336)
  gives a total of 957783 points

 initial charge density was supplied:
 charge density of overlapping atoms calculated
 number of electron      44.0000000 magnetization 
 keeping initial charge density in first step


--------------------------------------------------------------------------------------------------------


 Maximum index for non-local projection operator          308
 Maximum index for augmentation-charges            0 (set IRDMAX)


--------------------------------------------------------------------------------------------------------


 First call to EWALD:  gamma=   0.066
 Maximum number of real-space cells 3x 3x 3
 Maximum number of reciprocal cells 2x 3x 3

    FEWALD:  cpu time      0.0072: real time      0.0072


--------------------------------------- Iteration      1(   1)  ---------------------------------------


vdW kernel read from vdw_kernel.bindat
  0.0000  0.2424  0.5071  0.7962  1.1119  1.4567  1.8333  2.2446  2.6937  3.1842
  3.7199  4.3049  4.9438  5.6415  6.4036  7.2358  8.1446  9.1372 10.2212 11.4050
 12.6979 14.1099 15.6519 17.3360 19.1751 21.1837 23.3773 25.7729 28.3892 31.2465
 34.3669 37.7748 41.4965 45.5611 50.0000
 
    POTLOK:  cpu time      9.6791: real time      9.7005
    SETDIJ:  cpu time      0.0103: real time      0.0106
    TRIAL :  cpu time      1.9882: real time      2.0425
    CORREC:  cpu time      0.0018: real time      0.0018
    --------------------------------------------
      LOOP:  cpu time     11.6885: real time     11.7680

 eigenvalue-minimisations  :   192
 total energy-change (2. order) : 0.1376077E+03  (-0.9690016E+03)
 number of electron      44.0000000 magnetization 
 augmentation part       44.0000000 magnetization 

 Free energy of the ion-electron system (eV)
  ---------------------------------------------------
  alpha Z        PSCENC =         0.40587778
  Ewald energy   TEWEN  =      3398.21505294
  -Hartree energ DENC   =     -4142.05237845
  -exchange      EXHF   =         0.00000000
  -V(xc)+E(xc)   XCENC  =       131.05868709
  PAW double counting   =       790.74924205     -797.79255151
  entropy T*S    EENTRO =        -0.00001002
  eigenvalues    EBANDS =      -498.70002290
  atomic energy  EATOM  =      1255.72384120
  ---------------------------------------------------
  free energy    TOTEN  =       137.60773818 eV

  energy without entropy =      137.60774820  energy(sigma->0) =      137.60774319


--------------------------------------------------------------------------------------------------------




--------------------------------------- Iteration      1(   2)  ---------------------------------------


    TRIAL :  cpu time      1.7458: real time      1.7528
    CORREC:  cpu time      0.0005: real time      0.0005
    --------------------------------------------
      LOOP:  cpu time      1.7529: real time      1.7910

 eigenvalue-minimisations  :   192
 total energy-change (2. order) :-0.2410739E+03  (-0.2410727E+03)
 number of electron      44.0000000 magnetization 
 augmentation part       44.0000000 magnetization 

 Free energy of the ion-electron system (eV)
  ---------------------------------------------------
  alpha Z        PSCENC =         0.40587778
  Ewald energy   TEWEN  =      3398.21505294
  -Hartree energ DENC   =     -4142.05237845
  -exchange      EXHF   =         0.00000000
  -V(xc)+E(xc)   XCENC  =       131.05868709
  PAW double counting   =       790.74924205     -797.79255151
  entropy T*S    EENTRO =        -0.00000000
  eigenvalues    EBANDS =      -739.77396211
  atomic energy  EATOM  =      1255.72384120
  ---------------------------------------------------
  free energy    TOTEN  =      -103.46619101 eV

  energy without entropy =     -103.46619101  energy(sigma->0) =     -103.46619101


--------------------------------------------------------------------------------------------------------




--------------------------------------- Iteration      1(   3)  ---------------------------------------


    TRIAL :  cpu time      0.9541: real time      0.9588
    CORREC:  cpu time      0.0006: real time      0.0006
    --------------------------------------------
      LOOP:  cpu time      0.9596: real time      0.9922

 eigenvalue-minimisations  :    96
 total energy-change (2. order) :-0.2610414E+02  (-0.2610414E+02)
 number of electron      44.0000000 magnetization 
 augmentation part       44.0000000 magnetization 

 Free energy of the ion-electron system (eV)
  ---------------------------------------------------
  alpha Z        PSCENC =         0.40587778
  Ewald energy   TEWEN  =      3398.21505294
  -Hartree energ DENC   =     -4142.05237845
  -exchange      EXHF   =         0.00000000
  -V(xc)+E(xc)   XCENC  =       131.05868709
  PAW double counting   =       790.74924205     -797.79255151
  entropy T*S    EENTRO =        -0.00000000
  eigenvalues    EBANDS =      -765.87810030
  atomic energy  EATOM  =      1255.72384120
  ---------------------------------------------------
  free energy    TOTEN  =      -129.57032920 eV

  energy without entropy =     -129.57032920  energy(sigma->0) =     -129.57032920


--------------------------------------------------------------------------------------------------------




--------------------------------------- Iteration      1(   4)  ---------------------------------------


    TRIAL :  cpu time      1.7075: real time      1.7209
    CORREC:  cpu time      0.0005: real time      0.0005
    --------------------------------------------
      LOOP:  cpu time      1.7126: real time      1.7545

 eigenvalue-minimisations  :   192
 total energy-change (2. order) :-0.9257250E+00  (-0.9257250E+00)
 number of electron      44.0000000 magnetization 
 augmentation part       44.0000000 magnetization 

 Free energy of the ion-electron system (eV)
  ---------------------------------------------------
  alpha Z        PSCENC =         0.40587778
  Ewald energy   TEWEN  =      3398.21505294
  -Hartree energ DENC   =     -4142.05237845
  -exchange      EXHF   =         0.00000000
  -V(xc)+E(xc)   XCENC  =       131.05868709
  PAW double counting   =       790.74924205     -797.79255151
  entropy T*S    EENTRO =        -0.00000000
  eigenvalues    EBANDS =      -766.80382535
  atomic energy  EATOM  =      1255.72384120
  ---------------------------------------------------
  free energy    TOTEN  =      -130.49605425 eV

  energy without entropy =     -130.49605425  energy(sigma->0) =     -130.49605425


--------------------------------------------------------------------------------------------------------




--------------------------------------- Iteration      1(   5)  ---------------------------------------


    TRIAL :  cpu time      1.3217: real time      1.3354
    CORREC:  cpu time      0.0004: real time      0.0004
    CHARGE:  cpu time      0.2659: real time      0.2664
    --------------------------------------------
      LOOP:  cpu time      1.5931: real time      1.6361

 eigenvalue-minimisations  :   144
 total energy-change (2. order) :-0.4685956E-03  (-0.4685956E-03)
 number of electron      44.0000017 magnetization 
 augmentation part        1.2124245 magnetization 

 Free energy of the ion-electron system (eV)
  ---------------------------------------------------
  alpha Z        PSCENC =         0.40587778
  Ewald energy   TEWEN  =      3398.21505294
  -Hartree energ DENC   =     -4142.05237845
  -exchange      EXHF   =         0.00000000
  -V(xc)+E(xc)   XCENC  =       131.05868709
  PAW double counting   =       790.74924205     -797.79255151
  entropy T*S    EENTRO =        -0.00000000
  eigenvalues    EBANDS =      -766.80429395
  atomic energy  EATOM  =      1255.72384120
  ---------------------------------------------------
  free energy    TOTEN  =      -130.49652285 eV

  energy without entropy =     -130.49652285  energy(sigma->0) =     -130.49652285


--------------------------------------------------------------------------------------------------------




--------------------------------------- Iteration      1(   6)  ---------------------------------------


    POTLOK:  cpu time      8.5136: real time      8.5263
    SETDIJ:  cpu time      0.0090: real time      0.0090
    TRIAL :  cpu time      0.6164: real time      0.6217
    CORREC:  cpu time      9.2162: real time      9.2918
    CHARGE:  cpu time      0.2524: real time      0.2532
    --------------------------------------------
      LOOP:  cpu time     18.6103: real time     18.7332

 eigenvalue-minimisations  :     0
 total energy-change (2. order) : 0.2816298E+02  (-0.1120116E+02)
 number of electron      44.0000012 magnetization 
 augmentation part        1.0848982 magnetization 

 Free energy of the ion-electron system (eV)
  ---------------------------------------------------
  alpha Z        PSCENC =         0.40587778
  Ewald energy   TEWEN  =      3398.21505294
  -Hartree energ DENC   =     -4613.70614586
  -exchange      EXHF   =         0.00000000
  -V(xc)+E(xc)   XCENC  =       151.99036477
  PAW double counting   =      3175.96859628    -3183.28629498
  entropy T*S    EENTRO =        -0.00000000
  eigenvalues    EBANDS =      -287.64483956
  atomic energy  EATOM  =      1255.72384120
  ---------------------------------------------------
  free energy    TOTEN  =      -102.33354742 eV

  energy without entropy =     -102.33354742  energy(sigma->0) =     -102.33354742


--------------------------------------------------------------------------------------------------------




--------------------------------------- Iteration      1(   7)  ---------------------------------------


    POTLOK:  cpu time      8.8977: real time      8.9317
    SETDIJ:  cpu time      0.0105: real time      0.0105
    TRIAL :  cpu time      0.5989: real time      0.6022
    CORREC:  cpu time      9.2262: real time      9.2390
    CHARGE:  cpu time      0.2378: real time      0.2378
    --------------------------------------------
      LOOP:  cpu time     19.0043: real time     19.0547

 eigenvalue-minimisations  :     0
 total energy-change (2. order) :-0.1126759E+02  (-0.1375208E+01)
 number of electron      44.0000011 magnetization 
 augmentation part        1.0416146 magnetization 

 Free energy of the ion-electron system (eV)
  ---------------------------------------------------
  alpha Z        PSCENC =         0.40587778
  Ewald energy   TEWEN  =      3398.21505294
  -Hartree energ DENC   =     -4416.85758497
  -exchange      EXHF   =         0.00000000
  -V(xc)+E(xc)   XCENC  =       144.23274691
  PAW double counting   =      3087.64090174    -3094.85423467
  entropy T*S    EENTRO =        -0.00000000
  eigenvalues    EBANDS =      -488.10773831
  atomic energy  EATOM  =      1255.72384120
  ---------------------------------------------------
  free energy    TOTEN  =      -113.60113737 eV

  energy without entropy =     -113.60113737  energy(sigma->0) =     -113.60113737


--------------------------------------------------------------------------------------------------------




--------------------------------------- Iteration      1(   8)  ---------------------------------------


    POTLOK:  cpu time      8.6216: real time      8.6350
    SETDIJ:  cpu time      0.0086: real time      0.0086
    TRIAL :  cpu time      0.5961: real time      0.5983
    CORREC:  cpu time      9.0234: real time      9.0353
    CHARGE:  cpu time      0.2391: real time      0.2392
    --------------------------------------------
      LOOP:  cpu time     18.5079: real time     18.5530

 eigenvalue-minimisations  :     0
 total energy-change (2. order) :-0.1385994E+01  (-0.6950669E+00)
 number of electron      44.0000010 magnetization 
 augmentation part        1.0305955 magnetization 

 Free energy of the ion-electron system (eV)
  ---------------------------------------------------
  alpha Z        PSCENC =         0.40587778
  Ewald energy   TEWEN  =      3398.21505294
  -Hartree energ DENC   =     -4406.99742093
  -exchange      EXHF   =         0.00000000
  -V(xc)+E(xc)   XCENC  =       144.14770581
  PAW double counting   =      3188.53264691    -3195.71004914
  entropy T*S    EENTRO =        -0.00000000
  eigenvalues    EBANDS =      -499.30478597
  atomic energy  EATOM  =      1255.72384120
  ---------------------------------------------------
  free energy    TOTEN  =      -114.98713139 eV

  energy without entropy =     -114.98713139  energy(sigma->0) =     -114.98713139


--------------------------------------------------------------------------------------------------------




--------------------------------------- Iteration      1(   9)  ---------------------------------------


    POTLOK:  cpu time      8.6083: real time      8.6190
    SETDIJ:  cpu time      0.0087: real time      0.0087
    TRIAL :  cpu time      0.5953: real time      0.5953
    CORREC:  cpu time      8.9902: real time      9.0011
    CHARGE:  cpu time      0.2367: real time      0.2374
    --------------------------------------------
      LOOP:  cpu time     18.4432: real time     18.4937

 eigenvalue-minimisations  :     0
 total energy-change (2. order) :-0.6729855E+00  (-0.2174104E+00)
 number of electron      44.0000010 magnetization 
 augmentation part        1.0336696 magnetization 

 Free energy of the ion-electron system (eV)
  ---------------------------------------------------
  alpha Z        PSCENC =         0.40587778
  Ewald energy   TEWEN  =      3398.21505294
  -Hartree energ DENC   =     -4387.42663985
  -exchange      EXHF   =         0.00000000
  -V(xc)+E(xc)   XCENC  =       143.44302056
  PAW double counting   =      3226.75447562    -3233.90848935
  entropy T*S    EENTRO =        -0.00000000
  eigenvalues    EBANDS =      -518.86725577
  atomic energy  EATOM  =      1255.72384120
  ---------------------------------------------------
  free energy    TOTEN  =      -115.66011686 eV

  energy without entropy =     -115.66011686  energy(sigma->0) =     -115.66011686


--------------------------------------------------------------------------------------------------------




--------------------------------------- Iteration      1(  10)  ---------------------------------------


    POTLOK:  cpu time      8.9903: real time      9.0020
    SETDIJ:  cpu time      0.0100: real time      0.0100
    TRIAL :  cpu time      0.5758: real time      0.5761
    CORREC:  cpu time      9.2994: real time      9.3121
    CHARGE:  cpu time      0.2402: real time      0.2404
    --------------------------------------------
      LOOP:  cpu time     19.1194: real time     19.1740

 eigenvalue-minimisations  :     0
 total energy-change (2. order) :-0.2153541E+00  (-0.6232613E-01)
 number of electron      44.0000010 magnetization 
 augmentation part        1.0358690 magnetization 

 Free energy of the ion-electron system (eV)
  ---------------------------------------------------
  alpha Z        PSCENC =         0.40587778
  Ewald energy   TEWEN  =      3398.21505294
  -Hartree energ DENC   =     -4386.29190050
  -exchange      EXHF   =         0.00000000
  -V(xc)+E(xc)   XCENC  =       143.37989589
  PAW double counting   =      3213.62847805    -3220.78092009
  entropy T*S    EENTRO =        -0.00000000
  eigenvalues    EBANDS =      -520.15579626
  atomic energy  EATOM  =      1255.72384120
  ---------------------------------------------------
  free energy    TOTEN  =      -115.87547098 eV

  energy without entropy =     -115.87547098  energy(sigma->0) =     -115.87547098


--------------------------------------------------------------------------------------------------------




--------------------------------------- Iteration      1(  11)  ---------------------------------------


    POTLOK:  cpu time      8.6472: real time      8.6577
    SETDIJ:  cpu time      0.0109: real time      0.0109
    TRIAL :  cpu time      0.5657: real time      0.5711
    CORREC:  cpu time      9.2239: real time      9.2353
    CHARGE:  cpu time      0.2390: real time      0.2390
    --------------------------------------------
      LOOP:  cpu time     18.6904: real time     18.7486

 eigenvalue-minimisations  :     0
 total energy-change (2. order) :-0.6216197E-01  (-0.1751958E-01)
 number of electron      44.0000010 magnetization 
 augmentation part        1.0364520 magnetization 

 Free energy of the ion-electron system (eV)
  ---------------------------------------------------
  alpha Z        PSCENC =         0.40587778
  Ewald energy   TEWEN  =      3398.21505294
  -Hartree energ DENC   =     -4386.39286495
  -exchange      EXHF   =         0.00000000
  -V(xc)+E(xc)   XCENC  =       143.33138810
  PAW double counting   =      3180.21673466    -3187.37370463
  entropy T*S    EENTRO =        -0.00000000
  eigenvalues    EBANDS =      -520.06395807
  atomic energy  EATOM  =      1255.72384120
  ---------------------------------------------------
  free energy    TOTEN  =      -115.93763296 eV

  energy without entropy =     -115.93763296  energy(sigma->0) =     -115.93763296


--------------------------------------------------------------------------------------------------------




--------------------------------------- Iteration      1(  12)  ---------------------------------------


    POTLOK:  cpu time      8.5900: real time      8.6008
    SETDIJ:  cpu time      0.0085: real time      0.0085
    TRIAL :  cpu time      0.5644: real time      0.5728
    CORREC:  cpu time      8.9640: real time      8.9769
    CHARGE:  cpu time      0.2408: real time      0.2408
    --------------------------------------------
      LOOP:  cpu time     18.3704: real time     18.4316

 eigenvalue-minimisations  :     0
 total energy-change (2. order) :-0.1754577E-01  (-0.5161825E-02)
 number of electron      44.0000010 magnetization 
 augmentation part        1.0377753 magnetization 

 Free energy of the ion-electron system (eV)
  ---------------------------------------------------
  alpha Z        PSCENC =         0.40587778
  Ewald energy   TEWEN  =      3398.21505294
  -Hartree energ DENC   =     -4385.04074678
  -exchange      EXHF   =         0.00000000
  -V(xc)+E(xc)   XCENC  =       143.23203082
  PAW double counting   =      3154.46841681    -3161.62950043
  entropy T*S    EENTRO =        -0.00000000
  eigenvalues    EBANDS =      -521.33015108
  atomic energy  EATOM  =      1255.72384120
  ---------------------------------------------------
  free energy    TOTEN  =      -115.95517873 eV

  energy without entropy =     -115.95517873  energy(sigma->0) =     -115.95517873


--------------------------------------------------------------------------------------------------------




--------------------------------------- Iteration      1(  13)  ---------------------------------------


    POTLOK:  cpu time      8.7502: real time      8.7624
    SETDIJ:  cpu time      0.0087: real time      0.0087
    TRIAL :  cpu time      0.5695: real time      0.5775
    CORREC:  cpu time      9.0554: real time      9.0674
    CHARGE:  cpu time      0.2384: real time      0.2384
    --------------------------------------------
      LOOP:  cpu time     18.6251: real time     18.6853

 eigenvalue-minimisations  :     0
 total energy-change (2. order) :-0.5169744E-02  (-0.1747927E-02)
 number of electron      44.0000010 magnetization 
 augmentation part        1.0382225 magnetization 

 Free energy of the ion-electron system (eV)
  ---------------------------------------------------
  alpha Z        PSCENC =         0.40587778
  Ewald energy   TEWEN  =      3398.21505294
  -Hartree energ DENC   =     -4386.15916613
  -exchange      EXHF   =         0.00000000
  -V(xc)+E(xc)   XCENC  =       143.27057560
  PAW double counting   =      3145.36689912    -3152.53153906
  entropy T*S    EENTRO =        -0.00000000
  eigenvalues    EBANDS =      -520.25188994
  atomic energy  EATOM  =      1255.72384120
  ---------------------------------------------------
  free energy    TOTEN  =      -115.96034847 eV

  energy without entropy =     -115.96034847  energy(sigma->0) =     -115.96034847


--------------------------------------------------------------------------------------------------------




--------------------------------------- Iteration      1(  14)  ---------------------------------------


    POTLOK:  cpu time      8.3350: real time      8.3461
    SETDIJ:  cpu time      0.0105: real time      0.0105
    TRIAL :  cpu time      0.5711: real time      0.5718
    CORREC:  cpu time      8.6060: real time      8.6178
    CHARGE:  cpu time      0.2379: real time      0.2380
    --------------------------------------------
      LOOP:  cpu time     17.7903: real time     17.8442

 eigenvalue-minimisations  :     0
 total energy-change (2. order) :-0.1750640E-02  (-0.6284785E-03)
 number of electron      44.0000010 magnetization 
 augmentation part        1.0385618 magnetization 

 Free energy of the ion-electron system (eV)
  ---------------------------------------------------
  alpha Z        PSCENC =         0.40587778
  Ewald energy   TEWEN  =      3398.21505294
  -Hartree energ DENC   =     -4386.22559636
  -exchange      EXHF   =         0.00000000
  -V(xc)+E(xc)   XCENC  =       143.27619364
  PAW double counting   =      3142.98826390    -3150.15482773
  entropy T*S    EENTRO =        -0.00000000
  eigenvalues    EBANDS =      -520.19090448
  atomic energy  EATOM  =      1255.72384120
  ---------------------------------------------------
  free energy    TOTEN  =      -115.96209911 eV

  energy without entropy =     -115.96209911  energy(sigma->0) =     -115.96209911


--------------------------------------------------------------------------------------------------------




--------------------------------------- Iteration      1(  15)  ---------------------------------------


    POTLOK:  cpu time      8.5700: real time      8.5820
    SETDIJ:  cpu time      0.0097: real time      0.0097
    TRIAL :  cpu time      0.5763: real time      0.5800
    CORREC:  cpu time      8.6133: real time      8.6244
    CHARGE:  cpu time      0.2363: real time      0.2363
    --------------------------------------------
      LOOP:  cpu time     18.0110: real time     18.0655

 eigenvalue-minimisations  :     0
 total energy-change (2. order) :-0.6284351E-03  (-0.1948064E-03)
 number of electron      44.0000010 magnetization 
 augmentation part        1.0387605 magnetization 

 Free energy of the ion-electron system (eV)
  ---------------------------------------------------
  alpha Z        PSCENC =         0.40587778
  Ewald energy   TEWEN  =      3398.21505294
  -Hartree energ DENC   =     -4386.42804432
  -exchange      EXHF   =         0.00000000
  -V(xc)+E(xc)   XCENC  =       143.28694334
  PAW double counting   =      3144.86116088    -3152.02836294
  entropy T*S    EENTRO =        -0.00000000
  eigenvalues    EBANDS =      -519.99919644
  atomic energy  EATOM  =      1255.72384120
  ---------------------------------------------------
  free energy    TOTEN  =      -115.96272755 eV

  energy without entropy =     -115.96272755  energy(sigma->0) =     -115.96272755


--------------------------------------------------------------------------------------------------------




--------------------------------------- Iteration      1(  16)  ---------------------------------------


    POTLOK:  cpu time      8.2236: real time      8.2341
    SETDIJ:  cpu time      0.0085: real time      0.0085
    TRIAL :  cpu time      0.5711: real time      0.5752
    CORREC:  cpu time      8.7681: real time      8.7800
    CHARGE:  cpu time      0.2389: real time      0.2389
    --------------------------------------------
      LOOP:  cpu time     17.8134: real time     17.8697

 eigenvalue-minimisations  :     0
 total energy-change (2. order) :-0.1938835E-03  (-0.5090826E-04)
 number of electron      44.0000010 magnetization 
 augmentation part        1.0386627 magnetization 

 Free energy of the ion-electron system (eV)
  ---------------------------------------------------
  alpha Z        PSCENC =         0.40587778
  Ewald energy   TEWEN  =      3398.21505294
  -Hartree energ DENC   =     -4386.66615538
  -exchange      EXHF   =         0.00000000
  -V(xc)+E(xc)   XCENC  =       143.29849301
  PAW double counting   =      3147.61675633    -3154.78380130
  entropy T*S    EENTRO =        -0.00000000
  eigenvalues    EBANDS =      -519.77298602
  atomic energy  EATOM  =      1255.72384120
  ---------------------------------------------------
  free energy    TOTEN  =      -115.96292143 eV

  energy without entropy =     -115.96292143  energy(sigma->0) =     -115.96292143


--------------------------------------------------------------------------------------------------------




--------------------------------------- Iteration      1(  17)  ---------------------------------------


    POTLOK:  cpu time      8.4502: real time      8.4639
    SETDIJ:  cpu time      0.0087: real time      0.0087
    TRIAL :  cpu time      0.5819: real time      0.5830
    CORREC:  cpu time      8.5741: real time      8.5859
    CHARGE:  cpu time      0.2387: real time      0.2387
    --------------------------------------------
      LOOP:  cpu time     17.8573: real time     17.9111

 eigenvalue-minimisations  :     0
 total energy-change (2. order) :-0.5039772E-04  (-0.1627766E-04)
 number of electron      44.0000010 magnetization 
 augmentation part        1.0386122 magnetization 

 Free energy of the ion-electron system (eV)
  ---------------------------------------------------
  alpha Z        PSCENC =         0.40587778
  Ewald energy   TEWEN  =      3398.21505294
  -Hartree energ DENC   =     -4386.60416070
  -exchange      EXHF   =         0.00000000
  -V(xc)+E(xc)   XCENC  =       143.29613504
  PAW double counting   =      3149.10102890    -3156.26767404
  entropy T*S    EENTRO =        -0.00000000
  eigenvalues    EBANDS =      -519.83307295
  atomic energy  EATOM  =      1255.72384120
  ---------------------------------------------------
  free energy    TOTEN  =      -115.96297183 eV

  energy without entropy =     -115.96297183  energy(sigma->0) =     -115.96297183


--------------------------------------------------------------------------------------------------------




--------------------------------------- Iteration      1(  18)  ---------------------------------------


    POTLOK:  cpu time      8.2001: real time      8.2097
    SETDIJ:  cpu time      0.0110: real time      0.0110
    TRIAL :  cpu time      0.5717: real time      0.5759
    CORREC:  cpu time      8.8361: real time      8.8464
    CHARGE:  cpu time      0.2474: real time      0.2474
    --------------------------------------------
      LOOP:  cpu time     17.8991: real time     17.9236

 eigenvalue-minimisations  :     0
 total energy-change (2. order) :-0.1542047E-04  (-0.5929673E-05)
 number of electron      44.0000010 magnetization 
 augmentation part        1.0385260 magnetization 

 Free energy of the ion-electron system (eV)
  ---------------------------------------------------
  alpha Z        PSCENC =         0.40587778
  Ewald energy   TEWEN  =      3398.21505294
  -Hartree energ DENC   =     -4386.65698675
  -exchange      EXHF   =         0.00000000
  -V(xc)+E(xc)   XCENC  =       143.29858415
  PAW double counting   =      3150.09244289    -3157.25880674
  entropy T*S    EENTRO =        -0.00000000
  eigenvalues    EBANDS =      -519.78299272
  atomic energy  EATOM  =      1255.72384120
  ---------------------------------------------------
  free energy    TOTEN  =      -115.96298725 eV

  energy without entropy =     -115.96298725  energy(sigma->0) =     -115.96298725


--------------------------------------------------------------------------------------------------------




--------------------------------------- Iteration      1(  19)  ---------------------------------------


    POTLOK:  cpu time      8.2159: real time      8.2261
    SETDIJ:  cpu time      0.0097: real time      0.0096
    TRIAL :  cpu time      0.5689: real time      0.5751
    CORREC:  cpu time      8.5751: real time      8.5867
    EDDIAG:  cpu time      0.2395: real time      0.2520
    CHARGE:  cpu time      0.2386: real time      0.2387
    --------------------------------------------
      LOOP:  cpu time     17.8518: real time     17.9199

 eigenvalue-minimisations  :     0
 total energy-change (2. order) :-0.5608622E-05  (-0.2054250E-05)
 number of electron      44.0000010 magnetization 
 augmentation part        1.0385193 magnetization 

 Free energy of the ion-electron system (eV)
  ---------------------------------------------------
  alpha Z        PSCENC =         0.40587778
  Ewald energy   TEWEN  =      3398.21505294
  -Hartree energ DENC   =     -4386.61317605
  -exchange      EXHF   =         0.00000000
  -V(xc)+E(xc)   XCENC  =       143.29697163
  PAW double counting   =      3150.37245906    -3157.53868758
  entropy T*S    EENTRO =        -0.00000000
  eigenvalues    EBANDS =      -519.82533185
  atomic energy  EATOM  =      1255.72384120
  ---------------------------------------------------
  free energy    TOTEN  =      -115.96299286 eV

  energy without entropy =     -115.96299286  energy(sigma->0) =     -115.96299286


--------------------------------------------------------------------------------------------------------


  average scaling for gradient   1.2546


 average (electrostatic) potential at core
  the test charge radii are     0.6991  0.5201
  (the norm of the test charge is              1.0000)
       1 -58.8298       2 -58.7028       3 -58.8346       4 -58.7956       5 -58.7945
       6 -58.7955       7 -58.7009       8 -42.7617       9 -42.7662      10 -42.6713
      11 -42.6751      12 -42.6790      13 -42.6816      14 -42.6788      15 -42.6794
      16 -42.7469      17 -42.6803      18 -42.7415      19 -42.7402      20 -42.6835
      21 -42.6823      22 -42.6792      23 -42.7465
 
 
 
 E-fermi :  -7.4269     XC(G=0):  -0.1634     alpha+bet : -0.0577

 Fermi energy:        -7.4269290033

 k-point     1 :       0.0000    0.0000    0.0000
  band No.  band energies     occupation 
      1     -20.3217      2.00000
      2     -19.5594      2.00000
      3     -18.3684      2.00000
      4     -16.8668      2.00000
      5     -15.3069      2.00000
      6     -14.3756      2.00000
      7     -14.3687      2.00000
      8     -12.0010      2.00000
      9     -11.3299      2.00000
     10     -10.7608      2.00000
     11     -10.5855      2.00000
     12     -10.3637      2.00000
     13      -9.9492      2.00000
     14      -9.3173      2.00000
     15      -9.1893      2.00000
     16      -8.9127      2.00000
     17      -8.4546      2.00000
     18      -8.3328      2.00000
     19      -8.0289      2.00000
     20      -8.0199      2.00000
     21      -7.9397      2.00000
     22      -7.5569      2.00000
     23      -0.9892      0.00000
     24      -0.7128      0.00000
     25      -0.6002      0.00000
     26      -0.5338      0.00000
     27      -0.2880      0.00000
     28      -0.0323      0.00000
     29       0.0483      0.00000
     30       0.0547      0.00000
     31       0.1789      0.00000
     32       0.2073      0.00000
     33       0.2279      0.00000
     34       0.2341      0.00000
     35       0.3126      0.00000
     36       0.3306      0.00000
     37       0.3966      0.00000
     38       0.4282      0.00000
     39       0.5982      0.00000
     40       0.6032      0.00000
     41       0.7026      0.00000
     42       0.7175      0.00000
     43       0.8037      0.00000
     44       1.0560      0.00000
     45       1.1590      0.00000
     46       1.2525      0.00000
     47       1.3585      0.00000
     48       1.3807      0.00000


--------------------------------------------------------------------------------------------------------


 soft charge-density along one line, spin component           1
         0         1         2         3         4         5         6         7         8         9
 total charge-density along one line
 
 pseudopotential strength for first ion, spin component:           1
 10.264  13.651  -0.000  -0.000  -0.000   0.001   0.001   0.000
 13.651  18.154  -0.000  -0.000  -0.000   0.001   0.001   0.000
 -0.000  -0.000  -4.257   0.000  -0.000   8.327  -0.000   0.000
 -0.000  -0.000   0.000  -4.255   0.000  -0.000   8.324  -0.000
 -0.000  -0.000  -0.000   0.000  -4.257   0.000  -0.000   8.328
  0.001   0.001   8.327  -0.000   0.000 -18.430   0.001  -0.000
  0.001   0.001  -0.000   8.324  -0.000   0.001 -18.426   0.000
  0.000   0.000   0.000  -0.000   8.328  -0.000   0.000 -18.431
 total augmentation occupancy for first ion, spin component:           1
  8.093  -3.575  -0.088   0.007   0.000  -0.004   0.001   0.000
 -3.575   1.611   0.048   0.001  -0.000  -0.001  -0.001  -0.000
 -0.088   0.048   1.590   0.000   0.000   0.135  -0.001   0.000
  0.007   0.001   0.000   1.577  -0.000  -0.001   0.137  -0.000
  0.000  -0.000   0.000  -0.000   1.627   0.000  -0.000   0.135
 -0.004  -0.001   0.135  -0.001   0.000   0.012  -0.000   0.000
  0.001  -0.001  -0.001   0.137  -0.000  -0.000   0.013  -0.000
  0.000  -0.000   0.000  -0.000   0.135   0.000  -0.000   0.012


------------------------ aborting loop because EDIFF is reached ----------------------------------------


    FORLOC:  cpu time      0.0786: real time      0.0786
    FORNL :  cpu time      0.5381: real time      0.5401
    STRESS:  cpu time      0.9457: real time      0.9475
    FORCOR:  cpu time      8.5688: real time      8.5792
    OFIELD:  cpu time      0.0008: real time      0.0008

  FORCE on cell =-STRESS in cart. coord.  units (eV):
  Direction    XX          YY          ZZ          XY          YZ          ZX
  --------------------------------------------------------------------------------------
  Alpha Z     0.40588     0.40588     0.40588
  Ewald     439.22232   528.89635  2430.09573     0.04607    10.53392     0.92120
  Hartree   895.95219   921.70273  2568.96792    -0.00682     8.94435     0.78920
  E(xc)    -162.24890  -162.84353  -163.90020     0.00029    -0.00381    -0.00049
  Local   -1690.99142 -1817.99391 -5381.40080    -0.02288   -19.52799    -1.71889
  n-local   -73.95811   -71.57027   -69.26064     0.00457     0.02389     0.00024
  augment    -0.49473    -0.38300    -0.22487    -0.00018     0.00088     0.00011
  Kinetic   591.60194   601.43267   615.04645    -0.00503     0.04411     0.00482
  Fock        0.00000     0.00000     0.00000     0.00000     0.00000     0.00000
  -------------------------------------------------------------------------------------
  Total      -0.51082    -0.35308    -0.27053     0.01603     0.01535    -0.00382
  in kB      -0.04131    -0.02856    -0.02188     0.00130     0.00124    -0.00031
  external pressure =       -0.03 kB  Pullay stress =        0.00 kB


 VOLUME and BASIS-vectors are now :
 -----------------------------------------------------------------------------
  energy-cutoff  :      500.00
  volume of cell :    19809.80
      direct lattice vectors                 reciprocal lattice vectors
    23.670780182  0.000000000  0.000000000     0.042246178  0.000000000  0.000000000
     0.000000000 27.896282673  0.000000000     0.000000000  0.035847070  0.000000000
     0.000000000  0.000000000 30.000000000     0.000000000  0.000000000  0.033333333

  length of vectors
    23.670780182 27.896282673 30.000000000     0.042246178  0.035847070  0.033333333


 FORCES acting on ions:
    Electron-Ion                     Ewald-Force                    Non-Local-Force
 -----------------------------------------------------------------------------------------------
   0.820E-01 0.893E+02 0.786E+02   -.800E-01 -.890E+02 -.783E+02   0.613E-02 -.303E+00 -.348E+00
   -.523E-01 -.464E+02 -.149E+03   0.533E-01 0.461E+02 0.148E+03   -.292E-03 0.274E+00 0.412E+00
   -.550E-01 0.885E+02 -.794E+02   0.620E-01 -.882E+02 0.791E+02   0.771E-02 -.320E+00 0.322E+00
   -.824E-01 0.885E+02 -.775E+00   0.839E-01 -.880E+02 0.787E+00   0.139E-02 -.531E+00 -.233E-01
   -.125E+00 -.838E+02 -.299E+02   0.122E+00 0.833E+02 0.300E+02   -.400E-02 0.508E+00 -.628E-01
   0.610E-01 -.849E+02 0.302E+02   -.582E-01 0.843E+02 -.302E+02   0.590E-02 0.495E+00 0.253E-01
   0.458E-01 -.441E+02 0.150E+03   -.476E-01 0.438E+02 -.149E+03   -.847E-02 0.331E+00 -.407E+00
   0.130E-01 0.299E+02 0.701E+02   -.139E-01 -.332E+02 -.748E+02   0.676E-03 0.325E+01 0.469E+01
   0.684E-02 0.290E+02 -.705E+02   -.730E-02 -.322E+02 0.753E+02   0.131E-02 0.319E+01 -.474E+01
   -.556E+02 0.536E+02 -.175E+02   0.600E+02 -.570E+02 0.175E+02   -.447E+01 0.343E+01 -.819E-02
   0.556E+02 0.536E+02 -.175E+02   -.601E+02 -.570E+02 0.175E+02   0.448E+01 0.343E+01 -.994E-02
   0.581E+02 -.544E+02 -.638E+01   -.626E+02 0.578E+02 0.638E+01   0.448E+01 -.340E+01 0.110E-01
   -.581E+02 -.544E+02 -.635E+01   0.626E+02 0.578E+02 0.634E+01   -.448E+01 -.341E+01 0.125E-01
   -.585E+02 0.557E+02 -.156E+00   0.629E+02 -.591E+02 0.158E+00   -.447E+01 0.341E+01 0.929E-02
   0.584E+02 0.557E+02 -.223E+00   -.629E+02 -.592E+02 0.232E+00   0.447E+01 0.341E+01 0.445E-02
   -.518E+02 -.439E+02 -.284E+02   0.564E+02 0.472E+02 0.286E+02   -.459E+01 -.335E+01 -.232E+00
   0.558E+02 0.537E+02 0.169E+02   -.603E+02 -.572E+02 -.168E+02   0.449E+01 0.343E+01 -.351E-01
   -.517E+02 -.436E+02 0.289E+02   0.563E+02 0.470E+02 -.292E+02   -.457E+01 -.337E+01 0.268E+00
   0.517E+02 -.436E+02 0.289E+02   -.563E+02 0.470E+02 -.292E+02   0.457E+01 -.337E+01 0.266E+00
   0.582E+02 -.544E+02 0.696E+01   -.626E+02 0.578E+02 -.699E+01   0.448E+01 -.340E+01 0.430E-01
   -.581E+02 -.544E+02 0.703E+01   0.626E+02 0.579E+02 -.707E+01   -.448E+01 -.340E+01 0.480E-01
   -.558E+02 0.537E+02 0.169E+02   0.602E+02 -.572E+02 -.169E+02   -.449E+01 0.343E+01 -.325E-01
   0.518E+02 -.439E+02 -.284E+02   -.564E+02 0.472E+02 0.286E+02   0.459E+01 -.335E+01 -.232E+00
 -----------------------------------------------------------------------------------------------
   -.718E-02 -.421E+00 0.507E-01   -.213E-13 -.284E-13 -.149E-12   0.214E-01 0.383E+00 -.212E-01
 
 
 POSITION                                       TOTAL-FORCE (eV/Angst)
 -----------------------------------------------------------------------------------
     11.83393     13.44448     12.44332         0.007437     -0.009594     -0.039998
     11.83670     14.32636     18.83484         0.000062     -0.034397     -0.023069
     11.83642     13.46992     17.56537         0.014052     -0.040409     -0.002959
     11.83589     13.46350     15.00078         0.002285     -0.030449     -0.012647
     11.83661     14.30366     16.27917        -0.007178     -0.019290      0.037835
     11.83451     14.29598     13.71642         0.008001     -0.017264     -0.032608
     11.83380     14.28153     11.16124        -0.010832      0.011771      0.021064
     11.83366     13.65299     10.26670        -0.000811      0.005101      0.022251
     11.83648     13.71020     19.73705         0.000242     -0.015860     -0.002707
     12.71252     12.80795     17.56578        -0.011724      0.036888      0.009468
     10.96002     12.80912     17.56607         0.000174      0.027776      0.008112
     10.95806     14.96228     16.27756         0.001075      0.016134      0.007444
     12.71473     14.96242     16.27725         0.004600      0.018233      0.006840
     12.71357     12.80376     14.99925         0.004420     -0.001498      0.010167
     10.95855     12.80340     15.00032        -0.006599     -0.002977      0.012600
     12.72115     14.96935     18.87133        -0.018418      0.016516      0.005154
     10.95682     12.78570     12.45163        -0.002046      0.002560     -0.007469
     12.71624     14.92719     11.11747        -0.006044     -0.004968     -0.018006
     10.95114     14.92717     11.11779         0.008414     -0.007210     -0.018579
     10.95529     14.95352     13.70840         0.001907      0.015970      0.010923
     12.71316     14.95449     13.70733        -0.006398      0.013098      0.008981
     12.71107     12.78562     12.45112        -0.001221      0.003026     -0.007557
     10.95222     14.96937     18.87131         0.018604      0.016843      0.004758
 -----------------------------------------------------------------------------------
    total drift:                                0.014236     -0.037749      0.029564


--------------------------------------------------------------------------------------------------------



  FREE ENERGIE OF THE ION-ELECTRON SYSTEM (eV)
  ---------------------------------------------------
  free  energy   TOTEN  =      -115.96299286 eV

  energy  without entropy=     -115.96299286  energy(sigma->0) =     -115.96299286
 


--------------------------------------------------------------------------------------------------------


 BEEFens 2000 ensemble energies
             -0.364559027005841E+02
             -0.209922781765385E+00
             -0.763172012592133E+01
              0.247281318183723E+02
             -0.126653390815865E+02
             -0.999184925337394E+01
             -0.258047784359730E+02
             -0.537752220244523E+02
             -0.222494922177246E+02
             -0.239815427381412E+02
             -0.189325683899283E+02
              0.154920361359262E+01
              0.112611097280417E+01
              0.664710187203440E+00
              0.200088330700187E+01
              0.270067566570247E+02
             -0.128740691412342E+02
             -0.854116187754082E+01
              0.124102394254780E+02
             -0.643707655034120E+02
              0.305908770904291E+02
             -0.128247587839809E+02
             -0.354897248678729E+01
             -0.598754849441609E+01
             -0.197104835566677E+00
             -0.324755611024777E+01
              0.521393834235153E+02
             -0.110786396149685E+02
             -0.513679982655100E+01
             -0.308611877254378E+02
              0.429272872578067E+02
             -0.543825704697957E+01
             -0.234747409484314E+02
              0.109897120470691E+02
             -0.161416684655092E+01
              0.131903617305013E+02
             -0.119943774170935E+01
              0.223349971573461E+01
              0.194840258369566E+02
             -0.591035387180133E+02
              0.332417602862900E+02
              0.691163403226986E+01
             -0.468058420963882E+01
             -0.174982308178453E+02
              0.739409702573860E+01
             -0.877174010099912E+01
              0.270874032607360E+02
              0.202900491293113E+02
             -0.140617918137672E+02
             -0.163337701282643E+02
             -0.175221148144080E+02
             -0.216879693303611E+02
              0.120362795336376E+02
             -0.296667222111336E+02
              0.836576866110062E+01
              0.347289514010778E+02
              0.398445402942043E+02
              0.194359423552160E+02
              0.105404163139375E+02
              0.178299725278470E+02
              0.535070881289721E+02
              0.112899505808495E+02
             -0.321830316102151E+02
             -0.750091412934586E+01
             -0.165833000094857E+02
              0.359982761997491E+02
             -0.441090618126202E+02
             -0.358315493021965E+02
             -0.182594770647233E+02
             -0.794792723989224E+01
             -0.238378672445691E+02
              0.164309763535931E+02
              0.757751941014317E+01
              0.692196945766688E+01
             -0.230946961616512E+02
             -0.200158086487543E+02
             -0.325080987001442E+02
              0.203878519425204E+02
             -0.182745424847252E+02
              0.181502209425962E+02
             -0.462268073003388E+01
             -0.179593535184489E+02
             -0.303464124268756E+02
             -0.831695346399516E+01
             -0.766664879055247E+01
             -0.792014548668010E+01
              0.242410586967949E+02
              0.421369324819557E+02
             -0.235765255093507E+02
             -0.455325081305496E+02
             -0.114023004334446E+02
              0.637560122875808E+02
             -0.335843456362116E+02
              0.187799992599306E+02
             -0.499087383241266E+01
             -0.363282953773206E+02
              0.159194706824230E+02
              0.195311532311018E+02
             -0.865682668360996E+01
              0.183313635342209E+02
             -0.156413794416052E+02
             -0.314770791956024E+02
              0.547534163655835E+02
              0.254802194972469E+02
              0.153266899223687E+02
              0.593686993289978E+01
              0.105771421754884E+02
              0.475915977823847E+02
             -0.162495732982893E+02
              0.247761315624484E+01
             -0.812535388200569E+02
              0.120130074723489E+02
             -0.394403169319167E+02
              0.764559776511393E+01
              0.121420349821859E+02
             -0.196953443996360E+02
             -0.305178286991026E+02
              0.170085938031315E+01
             -0.175539621845726E+02
              0.227297536183761E+02
             -0.267548050109682E+02
             -0.302233181654321E+01
             -0.214975164307776E+02
             -0.984952028122848E+00
              0.100614965622945E+01
              0.113861313453984E+02
              0.118726234683209E+00
             -0.384751004664514E+01
              0.367711847969941E+02
              0.526334156194861E+02
              0.282943479729474E+02
              0.418608519206210E+02
             -0.819920390076273E+01
              0.417341343538268E+01
              0.304643172537357E+02
             -0.594645477430987E+00
             -0.438229070577838E+02
             -0.245643160470437E+02
             -0.286521767168372E+02
             -0.169201773431748E+02
              0.158885790428546E+02
             -0.682661351521566E+02
             -0.790442292429452E+01
              0.244482491650187E+02
             -0.234751307290941E+02
             -0.185788242529977E+02
              0.315052147592156E+02
              0.268542862163324E+02
             -0.180179265979845E+02
              0.149563727552555E+02
             -0.158653982977860E+02
              0.218002218902857E+02
              0.429782873249181E+01
              0.845641412115535E+01
             -0.488699306901586E+02
             -0.275429335083975E+02
             -0.668075433895251E+01
             -0.238326065245545E+01
             -0.233702637575662E+02
              0.627184147433614E+02
             -0.908010351003111E+01
             -0.185132854632824E+02
              0.238428827906044E+02
             -0.268352120384967E+02
             -0.212811329243913E+02
              0.169585811940851E+02
              0.633364740921653E+01
              0.651675817577978E+01
              0.758613906020852E+01
             -0.697993728757558E+01
              0.802652947092315E+01
              0.342543297919060E+02
             -0.172199921160799E+02
              0.106408891254021E+02
              0.526048551979234E+02
              0.184543536939044E+02
             -0.284885858231303E+01
             -0.102991982485654E+02
              0.879793996986659E+02
             -0.130314003482095E+02
              0.221578424098368E+02
              0.156485912807692E+02
              0.180956829705503E+02
              0.537051815250006E+02
              0.275962129350904E+02
             -0.203621862055749E+01
              0.131867183935695E+02
              0.292390482915225E+02
              0.212613402820288E+02
             -0.346708509295674E+02
              0.542896102356536E+02
             -0.509721520251218E+02
             -0.831184729363910E+01
              0.325211938013030E+02
              0.612108313824632E+01
              0.185422489837987E+01
              0.180021042538821E+02
              0.114009547901551E+02
              0.193781010620283E+02
             -0.355511613075805E+02
              0.151231750605712E+01
             -0.144822579305775E+02
             -0.271230958989748E+01
[...]
  274          m_sumb_d                              0.003712                          1   4
  275        fornlr                                0.532932                            1   3
  276          rspher_all                            0.214322                          3   4
  277          phaser                                0.000003                          3   4
  278          rpro_isp                              0.308326                          3   4
  279            fftwav_mpi                            0.305061                        3   5
  280              fft3d_mpi                             0.260024                      3   6
  281                fftbrc_mpi                            0.218206                    3   7
  282                  fftbas_plan_mpi                       0.218197                  3   8
  283                    dfftw_execute                         0.082243                9   9
  284                    map_forward                           0.132864                6   9
  285                      map_gather                            0.016449              3  10
  286                      m_alltoallv_z                         0.057667              3  10
  287                      map_scatter                           0.028963              3  10
  288            rpromu                                0.002879                        3   5
  289              rpromu_gemm                           0.000666                     69   6
  290              m_sumb_d                              0.000943                      3   6
  291          m_sumb_d                              0.010098                          1   4
  292        fordep                                0.005744                            1   3
  293          setdij_                               0.005661                          6   4
  294            m_sumb_d                              0.002918                        6   5
  295          m_sumb_d                              0.000019                          1   4
  296        setdij_                               0.018526                           20   3
  297          m_sumb_d                              0.009681                         20   4
  298        set_dd_magatom                        0.000008                            1   3
  299        set_dd_paw                            0.007274                            1   3
  300          set_rsgf_all                          0.000001                          1   4
  301          m_sumb_d                              0.007161                          7   4
  302        strkin                                0.002204                            1   3
  303          m_sumb_d                              0.001046                          1   4
  304        strelo                                0.015135                            1   3
  305          m_sumb_d                              0.001100                          2   4
  306        strnlr                                0.911188                            1   3
  307          rspher_all                            0.037936                          9   4
  308          phaser                                0.000005                          9   4
  309          rpro_isp                              0.841550                          9   4
  310            fftwav_mpi                            0.826034                        9   5
  311              fft3d_mpi                             0.694136                      9   6
  312                fftbrc_mpi                            0.569048                    9   7
  313                  fftbas_plan_mpi                       0.569027                  9   8
  314                    dfftw_execute                         0.271948               27   9
  315                    map_forward                           0.287111               18   9
  316                      map_gather                            0.063455              9  10
  317                      m_alltoallv_z                         0.035985              9  10
  318                      map_scatter                           0.083444              9  10
  319            rpromu                                0.014745                        9   5
  320              rpromu_gemm                           0.002497                    207   6
  321              m_sumb_d                              0.007617                      9   6
  322          m_sumb_d                              0.030863                          1   4
  323        m_sumb_d                              0.040790                            7   3
  324        fft3d_mpi                             2.035783                           71   3
  325          fftbrc_mpi                            1.920773                         71   4
  326            fftbas_plan_mpi                       1.920554                       71   5
  327              dfftw_execute                         0.451404                    213   6
  328              map_forward                           0.794592                     70   6
  329                map_gather                            0.043382                   35   7
  330                m_alltoallv_z                         0.536523                   35   7
  331                map_scatter                           0.213665                   35   7
  332              map_backward                          0.615944                     72   6
  333                map_gather                            0.142985                   36   7
  334                m_alltoallv_z                         0.409295                   36   7
  335                map_scatter                           0.062375                   36   7
  336        ggaall_grid                           0.158879                            1   3
  337        forhar                                0.025164                            1   3
  338          m_sumb_d                              0.001709                          1   4
  339        strehar                               0.010312                            1   3
  340          m_sumb_d                              0.002848                          1   4
  341        m_bcast_d                             0.002550                            2   3
  342      potlok                               18.354835                              1   2
  343        fft3d_mpi                             7.985348                          329   3
  344          fftbrc_mpi                            7.395487                        329   4
  345            fftbas_plan_mpi                       7.394534                      329   5
  346              dfftw_execute                         2.035633                    987   6
  347              map_forward                           2.870350                    330   6
  348                map_gather                            0.289839                  166   7
  349                m_alltoallv_z                         1.516410                  166   7
  350                map_scatter                           1.058321                  166   7
  351              map_backward                          2.217266                    328   6
  352                map_gather                            0.602891                  164   7
  353                m_alltoallv_z                         1.252552                  164   7
  354                map_scatter                           0.356340                  164   7
  355        ggaall_grid                           2.313333                           33   3
  356        m_sumb_d                              0.064379                          166   3
  357        pothar                                0.004692                            1   3
  358          m_sumb_d                              0.001244                          1   4
  359        m_bcast_d                             0.017050                            1   3
  360      potlok_metagga                        0.000020                              1   2
  361      set_dd_magatom                        0.000000                              1   2
  362      set_dd_paw                            0.007676                              1   2
  363        set_rsgf_all                          0.000002                            1   3
  364        m_sumb_d                              0.007370                            7   3
 
 Flat profile
 ============
 
             routine name                   CPU           calls
 ---------------------------------------------------------------
 potlok                                189.857476          30
 m_alltoallv_z                          26.504014        2810
 dfftw_execute                          21.405847        8253
 total_time                             19.723683           1
 ggaall_grid                            13.010616          63
 map_scatter                            12.419820        2810
 map_gather                              8.411441        2810
 fft3d_mpi                               7.704697        2751
 force_and_stress                        6.317767           1
 m_sumb_d                                2.908029        1609
 fftwav_mpi                              2.393038         124
 fftbas_plan_mpi                         2.266530        2751
 map_forward                             1.654351        2796
 m_alltoall_d                            1.549680         646
 edwav                                   1.055314          28
 vhamil                                  1.049493          37
 eccp                                    0.897469          61
 elmin_all                               0.698324           1
 soft_charge                             0.671285          29
 m_bcast_d                               0.633946         101
 m_bcast_z                               0.506822          49
 lapack                                  0.361854          22
 pw_charge                               0.311284          29
 redis_pw                                0.279857         202
 rspher_all                              0.257932          14
 orth1                                   0.240290         105
 augmentation_charge                     0.213214          29
 lincom                                  0.189856          86
 eddav                                   0.135247           5
 pothar                                  0.101646          30
 w1_dscal                                0.097500          14
 fftext_mpi                              0.081933          51
 w1_copy                                 0.079202          66
 forloc                                  0.074853           1
 set_charge                              0.068860          29
 ggemm                                   0.059064          22
 stufak                                  0.050582           1
 setdij_                                 0.050235          57
 map_backward                            0.049469        2706
 inisym                                  0.043661           1
 fft_gq                                  0.041034          29
 apply_precond                           0.023622          17
 forhar                                  0.023455           1
 racc0                                   0.021952          36
 rpro1                                   0.018968          31
 eddiag                                  0.018677          15
 choleski                                0.016983          29
 strelo                                  0.014035           1
 kinhamil                                0.012607          37
 rpromu_gemm                             0.009679         299
 fftbrc_mpi                              0.009203        2751
 rpro_isp                                0.008350          13
 redis_proj                              0.007797         444
 rpromu                                  0.007560          13
 strehar                                 0.007464           1
 set_dd_paw                              0.005951          31
 setup_precond                           0.005639           5
 fewald                                  0.005084           1
 densta                                  0.003188          40
 overl                                   0.002784         111
 orthch                                  0.002320          29
 brgrid                                  0.001400           1
 rsp                                     0.001203           1
 strkin                                  0.001158           1
 hamiltmu                                0.001017          22
 strnlr                                  0.000835           1
 depsum                                  0.000808          29
 newband                                 0.000744          27
 overl1                                  0.000736          22
 raccmu_                                 0.000451          22
 redis_pw_all                            0.000346          28
 crpa_reader                             0.000278           1
 hamilt_local                            0.000246          15
 potlok_metagga                          0.000191          30
 fornlr                                  0.000182           1
 rcp                                     0.000138           1
 w1_projall                              0.000113          17
 redis_pw_over_bands                     0.000108          29
 set_rsgf_all                            0.000068          31
 fordep                                  0.000065           1
 truncate_high_frequency_w1              0.000032          27
 rotate_active_occupied_orbital          0.000028           1
 phaser                                  0.000025          32
 posmap                                  0.000024           2
 proall                                  0.000022           1
 vectorpot                               0.000018           1
 set_dd_magatom                          0.000008           2
 shift_bands_between_low_high            0.000001           1
 ---------------------------------------------------------------
  summed up times    324.662775993347     
 
 Accumulative profile
 ====================
 
             routine name                   CPU           calls
 ---------------------------------------------------------------
 total_time                            324.662776           1
 elmin_all                             275.363296           1
 potlok                                267.404956          30
 fft3d_mpi                              80.425372        2751
 fftbrc_mpi                             72.720675        2751
 fftbas_plan_mpi                        72.711472        2751
 map_forward                            29.318897        2796
 m_alltoallv_z                          26.504014        2810
 dfftw_execute                          21.405847        8253
 map_backward                           19.720197        2706
 ggaall_grid                            13.010616          63
 fftwav_mpi                             12.792508         124
 map_scatter                            12.419820        2810
 force_and_stress                       10.162821           1
 edwav                                   8.636436          28
 map_gather                              8.411441        2810
 eddav                                   7.740974           5
 set_charge                              6.995055          29
 soft_charge                             6.041873          29
 fftext_mpi                              3.292819          51
 m_sumb_d                                2.908029        1609
 kinhamil                                2.396174          37
 hamiltmu                                2.066650          22
 eddiag                                  1.865902          15
 m_alltoall_d                            1.549680         646
 redis_pw                                1.432235         202
 hamilt_local                            1.407530          15
 rpro_isp                                1.281207          13
 vhamil                                  1.049493          37
 strnlr                                  0.911188           1
 eccp                                    0.906610          61
 augmentation_charge                     0.872709          29
 newband                                 0.650430          27
 m_bcast_d                               0.633946         101
 fft_gq                                  0.568082          29
 fornlr                                  0.532932           1
 m_bcast_z                               0.506822          49
 redis_proj                              0.405098         444
 lapack                                  0.361854          22
 pw_charge                               0.311284          29
 rspher_all                              0.257932          14
 set_dd_paw                              0.240846          31
 orth1                                   0.240290         105
 orthch                                  0.223351          29
 redis_pw_over_bands                     0.193860          29
 redis_pw_all                            0.193752          28
 lincom                                  0.189856          86
 pothar                                  0.144971          30
 proall                                  0.131354           1
 w1_dscal                                0.097500          14
 densta                                  0.095073          40
 setdij_                                 0.088568          57
 w1_copy                                 0.079202          66
 forloc                                  0.078565           1
 ggemm                                   0.059064          22
 stufak                                  0.050582           1
 racc0                                   0.044019          36
 inisym                                  0.043685           1
 rpro1                                   0.027322          31
 raccmu_                                 0.027250          22
 rpromu                                  0.025909          13
 forhar                                  0.025164           1
 apply_precond                           0.023622          17
 choleski                                0.016983          29
 strelo                                  0.015135           1
 w1_projall                              0.013622          17
 depsum                                  0.011613          29
 strehar                                 0.010312           1
 rpromu_gemm                             0.009679         299
 fewald                                  0.007163           1
 setup_precond                           0.005890           5
 fordep                                  0.005744           1
 overl                                   0.002784         111
 strkin                                  0.002204           1
 brgrid                                  0.001400           1
 rsp                                     0.001203           1
 overl1                                  0.000736          22
 crpa_reader                             0.000278           1
 potlok_metagga                          0.000191          30
 rcp                                     0.000138           1
 set_rsgf_all                            0.000068          31
 truncate_high_frequency_w1              0.000032          27
 rotate_active_occupied_orbital          0.000028           1
 phaser                                  0.000025          32
 posmap                                  0.000024           2
 vectorpot                               0.000018           1
 set_dd_magatom                          0.000008           2
 shift_bands_between_low_high            0.000001           1
 ---------------------------------------------------------------
 
Profiling took   0.074743  0.035023  0.015682  0.014720 seconds
Profiling took   0.112560 seconds
