 vasp.6.3.2 27Jun22 (build Jan 03 2024 23:25:20) gamma-only                     
  
 executed on           IFC15_impi date 2024.06.05  08:16:53
 running  512 mpi-ranks, with    1 threads/rank
 distrk:  each k-point on  512 cores,    1 groups
 distr:  one band on NCORE=  32 cores,   16 groups


--------------------------------------------------------------------------------------------------------


 INCAR:
   ENCUT = 500.000000
   SIGMA = 0.010000
   EDIFF = 1.00e-05
   ALGO = A
   ISMEAR = 0
   NELM = 200
   NSW = 999
   NCORE = 32
   LCHARG = .TRUE.
   LWAVE = .TRUE.
   LREAL = Auto
   IBRION = 5
   POTIM = 0.015
   NFREE = 2
   ISYM = 0
   EDIFFG = -0.05
   GGA = BF
   LUSE_VDW = .TRUE.
   ZAB_VDW = -1.8867
   LBEEFENS = .TRUE.
   DIPOL = 0.5 0.5 0.65
   IDIPOL = 3
   LDIPOL = .TRUE.

 POTCAR:    PAW_PBE Au 04Oct2007                  
 POTCAR:    PAW_PBE O 08Apr2002                   
 POTCAR:    PAW_PBE Sr_sv 07Sep2000               
 POTCAR:    PAW_PBE Ti_sv 26Sep2005               
 POTCAR:    PAW_PBE H 15Jun2001                   
 -----------------------------------------------------------------------------
|                                                                             |
|               ----> ADVICE to this user running VASP <----                  |
|                                                                             |
|     You have switched on vdW-DFT.                                           |
|     This routine was written and supplied by Jiri Klimes. We recommend      |
|     that you carefully read and cite the following publications:            |
|       J. Klimes, D.R. Bowler, A. Michelides                                 |
|          J. Phys.: Cond Matt. 22 022201 (2010)                              |
|       J. Klimes, D.R. Bowler, A. Michelides                                 |
|          Phys. Rev. B. 83, 195131 (2011)                                    |
|     and references therein.                                                 |
|                                                                             |
 -----------------------------------------------------------------------------

 POTCAR:    PAW_PBE Au 04Oct2007                  
   SHA256 =  d0044ae04e2bdce24051b198fc5c053d722a5bc6fe3c3b100514a13fc5d2db88 Au/POTCAR             
   COPYR  = (c) Copyright 04Oct2007 Georg Kresse                                                    
   COPYR  = This file is part of the software VASP. Any use, copying, and all other rights are regul
   COPYR  = If you do not have a valid VASP license, you may not use, copy or distribute this file. 
   VRHFIN =Au: s1d10                                                                                
   LEXCH  = PE                                                                                      
   EATOM  =   926.0867 eV,   68.0654 Ry                                                             
                                                                                                    
   TITEL  = PAW_PBE Au 04Oct2007                                                                    
   LULTRA =        F    use ultrasoft PP ?                                                          
   IUNSCR =        1    unscreen: 0-lin 1-nonlin 2-no                                               
   RPACOR =    2.330    partial core radius                                                         
   POMASS =  196.966; ZVAL   =   11.000    mass and valenz                                          
   RCORE  =    2.500    outmost cutoff radius                                                       
   RWIGS  =    2.840; RWIGS  =    1.503    wigner-seitz radius (au A)                               
   ENMAX  =  229.943; ENMIN  =  172.457 eV                                                          
   ICORE  =        3    local potential                                                             
   LCOR   =        T    correct aug charges                                                         
   LPAW   =        T    paw PP                                                                      
   EAUG   =  356.670                                                                                
   DEXC   =    0.000                                                                                
   RMAX   =    2.562    core radius for proj-oper                                                   
   RAUG   =    1.300    factor for augmentation sphere                                              
   RDEP   =    2.598    radius for radial grids                                                     
   RDEPT  =    2.193    core radius for aug-charge                                                  
                                                                                                    
   Atomic configuration                                                                             
   16 entries                                                                                       
     n  l   j            E        occ.                                                              
     1  0  0.50    -80748.5001   2.0000                                                             
     2  0  0.50    -14244.7466   2.0000                                                             
     2  1  1.50    -12310.9591   6.0000                                                             
     3  0  0.50     -3362.1768   2.0000                                                             
     3  1  1.50     -2801.5463   6.0000                                                             
     3  2  2.50     -2203.8206  10.0000                                                             
     4  0  0.50      -729.8168   2.0000                                                             
     4  1  1.50      -546.0527   6.0000                                                             
     4  2  2.50      -325.7302  10.0000                                                             
     4  3  3.50       -81.1472  14.0000                                                             
     5  0  0.50      -108.3201   2.0000                                                             
     5  1  1.50       -59.7479   6.0000                                                             
     5  2  2.50        -6.8783  10.0000                                                             
     6  0  0.50        -5.7602   1.0000                                                             
     6  1  1.50        -6.8029   0.0000                                                             
     5  3  2.50        -1.3606   0.0000                                                             
   Description                                                                                      
     l       E           TYP  RCUT    TYP  RCUT                                                     
     2     -6.8782861     23  2.500                                                                 
     2     -8.2388687     23  2.500                                                                 
     0     -5.7601759     23  2.500                                                                 
     0     -0.8493231     23  2.500                                                                 
     1     -2.7211652     23  2.500                                                                 
     1     27.2116520     23  2.500                                                                 
     3     -1.3605826     23  2.500                                                                 
  local pseudopotential read in
  partial core-charges read in
  partial kinetic energy density read in
  atomic valenz-charges read in
  non local Contribution for L=           2  read in
    real space projection operators read in
  non local Contribution for L=           2  read in
    real space projection operators read in
  non local Contribution for L=           0  read in
    real space projection operators read in
  non local Contribution for L=           0  read in
    real space projection operators read in
  non local Contribution for L=           1  read in
    real space projection operators read in
  non local Contribution for L=           1  read in
    real space projection operators read in
    PAW grid and wavefunctions read in
 
   number of l-projection  operators is LMAX  =           6
   number of lm-projection operators is LMMAX =          18
 
 POTCAR:    PAW_PBE O 08Apr2002                   
   SHA256 =  818f92134a0a090dccd8ba1447fa70422a3b330e708bb4f08108d8ae51209ddf O/POTCAR              
   COPYR  = (c) Copyright 08Apr2002 Georg Kresse                                                    
   COPYR  = This file is part of the software VASP. Any use, copying, and all other rights are regul
   COPYR  = If you do not have a valid VASP license, you may not use, copy or distribute this file. 
   VRHFIN =O: s2p4                                                                                  
   LEXCH  = PE                                                                                      
   EATOM  =   432.3788 eV,   31.7789 Ry                                                             
                                                                                                    
   TITEL  = PAW_PBE O 08Apr2002                                                                     
   LULTRA =        F    use ultrasoft PP ?                                                          
   IUNSCR =        1    unscreen: 0-lin 1-nonlin 2-no                                               
   RPACOR =    1.200    partial core radius                                                         
   POMASS =   16.000; ZVAL   =    6.000    mass and valenz                                          
   RCORE  =    1.520    outmost cutoff radius                                                       
   RWIGS  =    1.550; RWIGS  =    0.820    wigner-seitz radius (au A)                               
   ENMAX  =  400.000; ENMIN  =  300.000 eV                                                          
   ICORE  =        2    local potential                                                             
   LCOR   =        T    correct aug charges                                                         
   LPAW   =        T    paw PP                                                                      
   EAUG   =  605.392                                                                                
   DEXC   =    0.000                                                                                
   RMAX   =    1.553    core radius for proj-oper                                                   
   RAUG   =    1.300    factor for augmentation sphere                                              
   RDEP   =    1.550    radius for radial grids                                                     
   RDEPT  =    1.329    core radius for aug-charge                                                  
                                                                                                    
   Atomic configuration                                                                             
    4 entries                                                                                       
     n  l   j            E        occ.                                                              
     1  0  0.50      -514.6923   2.0000                                                             
     2  0  0.50       -23.9615   2.0000                                                             
     2  1  0.50        -9.0305   4.0000                                                             
     3  2  1.50        -9.5241   0.0000                                                             
   Description                                                                                      
     l       E           TYP  RCUT    TYP  RCUT                                                     
     0    -23.9615318     23  1.200                                                                 
     0     -9.5240782     23  1.200                                                                 
     1     -9.0304911     23  1.520                                                                 
     1      8.1634956     23  1.520                                                                 
     2     -9.5240782      7  1.500                                                                 
  local pseudopotential read in
  partial core-charges read in
  partial kinetic energy density read in
  kinetic energy density of atom read in
  atomic valenz-charges read in
  non local Contribution for L=           0  read in
    real space projection operators read in
  non local Contribution for L=           0  read in
    real space projection operators read in
  non local Contribution for L=           1  read in
    real space projection operators read in
  non local Contribution for L=           1  read in
    real space projection operators read in
    PAW grid and wavefunctions read in
 
   number of l-projection  operators is LMAX  =           4
   number of lm-projection operators is LMMAX =           8
 
 POTCAR:    PAW_PBE Sr_sv 07Sep2000               
   SHA256 =  a8389d3481648516ee67182ee030b298d280b37e29cbbf2d8595f040d757c710 Sr_sv/POTCAR          
   COPYR  = (c) Copyright 07Sep2000 Georg Kresse                                                    
   COPYR  = This file is part of the software VASP. Any use, copying, and all other rights are regul
   COPYR  = If you do not have a valid VASP license, you may not use, copy or distribute this file. 
   VRHFIN =Sr: 4s4p5s                                                                               
   LEXCH  = PE                                                                                      
   EATOM  =   843.0319 eV,   61.9611 Ry                                                             
                                                                                                    
   TITEL  = PAW_PBE Sr_sv 07Sep2000                                                                 
   LULTRA =        F    use ultrasoft PP ?                                                          
   IUNSCR =        1    unscreen: 0-lin 1-nonlin 2-no                                               
   RPACOR =    2.200    partial core radius                                                         
   POMASS =   87.620; ZVAL   =   10.000    mass and valenz                                          
   RCORE  =    2.500    outmost cutoff radius                                                       
   RWIGS  =    4.040; RWIGS  =    2.138    wigner-seitz radius (au A)                               
   ENMAX  =  229.353; ENMIN  =  172.014 eV                                                          
   RCLOC  =    2.201    cutoff for local pot                                                        
   LCOR   =        T    correct aug charges                                                         
   LPAW   =        T    paw PP                                                                      
   EAUG   =  366.804                                                                                
   DEXC   =    0.000                                                                                
   RMAX   =    2.547    core radius for proj-oper                                                   
   RAUG   =    1.300    factor for augmentation sphere                                              
   RDEP   =    2.562    radius for radial grids                                                     
   RDEPT  =    2.128    core radius for aug-charge                                                  
                                                                                                    
   Atomic configuration                                                                             
   10 entries                                                                                       
     n  l   j            E        occ.                                                              
     1  0  0.50    -15934.8930   2.0000                                                             
     2  0  0.50     -2157.6250   2.0000                                                             
     2  1  1.50     -1917.0034   6.0000                                                             
     3  0  0.50      -333.7288   2.0000                                                             
     3  1  1.50      -256.0992   6.0000                                                             
     3  2  2.50      -127.9971  10.0000                                                             
     4  0  0.50       -40.8953   2.0000                                                             
     5  0  0.50        -3.5257   1.9990                                                             
     4  1  1.50       -22.8179   6.0000                                                             
     4  2  1.50        -1.2815   0.0010                                                             
   Description                                                                                      
     l       E           TYP  RCUT    TYP  RCUT                                                     
     0    -40.8953213     23  2.480                                                                 
     0     -3.5257161     23  2.480                                                                 
     1    -22.8178632     23  2.500                                                                 
     1    -24.1784458     23  2.500                                                                 
     2     -1.2814598     23  2.500                                                                 
     2      0.2279365     23  2.500                                                                 
  local pseudopotential read in
  partial core-charges read in
  partial kinetic energy density read in
  atomic valenz-charges read in
  non local Contribution for L=           0  read in
    real space projection operators read in
  non local Contribution for L=           0  read in
    real space projection operators read in
  non local Contribution for L=           1  read in
    real space projection operators read in
  non local Contribution for L=           1  read in
    real space projection operators read in
  non local Contribution for L=           2  read in
    real space projection operators read in
  non local Contribution for L=           2  read in
    real space projection operators read in
    PAW grid and wavefunctions read in
 
   number of l-projection  operators is LMAX  =           6
   number of lm-projection operators is LMMAX =          18
 
 POTCAR:    PAW_PBE Ti_sv 26Sep2005               
   SHA256 =  4d747badb5a5ea28d858fbac70885b3f8929d6fd9e5b0dbe1ecb9878dc164da1 Ti_sv/POTCAR          
   COPYR  = (c) Copyright 26Sep2005 Georg Kresse                                                    
   COPYR  = This file is part of the software VASP. Any use, copying, and all other rights are regul
   COPYR  = If you do not have a valid VASP license, you may not use, copy or distribute this file. 
   VRHFIN =Ti: 3p4s3d                                                                               
   LEXCH  = PE                                                                                      
   EATOM  =  1588.0892 eV,  116.7213 Ry                                                             
                                                                                                    
   TITEL  = PAW_PBE Ti_sv 26Sep2005                                                                 
   LULTRA =        F    use ultrasoft PP ?                                                          
   IUNSCR =        1    unscreen: 0-lin 1-nonlin 2-no                                               
   RPACOR =    2.000    partial core radius                                                         
   POMASS =   47.880; ZVAL   =   12.000    mass and valenz                                          
   RCORE  =    2.300    outmost cutoff radius                                                       
   RWIGS  =    2.300; RWIGS  =    1.217    wigner-seitz radius (au A)                               
   ENMAX  =  274.610; ENMIN  =  205.957 eV                                                          
   ICORE  =        3    local potential                                                             
   LCOR   =        T    correct aug charges                                                         
   LPAW   =        T    paw PP                                                                      
   EAUG   =  482.848                                                                                
   RMAX   =    2.348    core radius for proj-oper                                                   
   RAUG   =    1.300    factor for augmentation sphere                                              
   RDEP   =    2.381    radius for radial grids                                                     
   RDEPT  =    1.930    core radius for aug-charge                                                  
                                                                                                    
   Atomic configuration                                                                             
    8 entries                                                                                       
     n  l   j            E        occ.                                                              
     1  0  0.50     -4865.3608   2.0000                                                             
     2  0  0.50      -533.1368   2.0000                                                             
     2  1  1.50      -440.5031   6.0000                                                             
     3  0  0.50       -59.3186   2.0000                                                             
     4  0  0.50        -3.7291   1.0000                                                             
     3  1  1.50       -35.7012   6.0000                                                             
     3  2  2.50        -1.9157   3.0000                                                             
     4  3  2.50        -1.3606   0.0000                                                             
   Description                                                                                      
     l       E           TYP  RCUT    TYP  RCUT                                                     
     0    -59.3185931     23  1.800                                                                 
     0     -3.7290822     23  2.300                                                                 
     1    -35.7012045     23  2.300                                                                 
     1     -1.3605826     23  2.300                                                                 
     2     -1.9156920     23  2.300                                                                 
     2     -0.0236318     23  2.300                                                                 
     3     -1.3605826     23  2.300                                                                 
  local pseudopotential read in
  partial core-charges read in
  partial kinetic energy density read in
  atomic valenz-charges read in
  non local Contribution for L=           0  read in
    real space projection operators read in
  non local Contribution for L=           0  read in
    real space projection operators read in
  non local Contribution for L=           1  read in
    real space projection operators read in
  non local Contribution for L=           1  read in
    real space projection operators read in
  non local Contribution for L=           2  read in
    real space projection operators read in
  non local Contribution for L=           2  read in
    real space projection operators read in
    PAW grid and wavefunctions read in
 
   number of l-projection  operators is LMAX  =           6
   number of lm-projection operators is LMMAX =          18
 
 POTCAR:    PAW_PBE H 15Jun2001                   
   SHA256 =  030f79b5d3ab3cf0e668861823c8fb652ff669f3e15e46930bd03bfd63a607b6 H/POTCAR              
   COPYR  = (c) Copyright 15Jun2001 Georg Kresse                                                    
   COPYR  = This file is part of the software VASP. Any use, copying, and all other rights are regul
   COPYR  = If you do not have a valid VASP license, you may not use, copy or distribute this file. 
   VRHFIN =H: ultrasoft test                                                                        
   LEXCH  = PE                                                                                      
   EATOM  =    12.4884 eV,    0.9179 Ry                                                             
                                                                                                    
   TITEL  = PAW_PBE H 15Jun2001                                                                     
   LULTRA =        F    use ultrasoft PP ?                                                          
   IUNSCR =        0    unscreen: 0-lin 1-nonlin 2-no                                               
   RPACOR =    0.000    partial core radius                                                         
   POMASS =    1.000; ZVAL   =    1.000    mass and valenz                                          
   RCORE  =    1.100    outmost cutoff radius                                                       
   RWIGS  =    0.700; RWIGS  =    0.370    wigner-seitz radius (au A)                               
   ENMAX  =  250.000; ENMIN  =  200.000 eV                                                          
   RCLOC  =    0.701    cutoff for local pot                                                        
   LCOR   =        T    correct aug charges                                                         
   LPAW   =        T    paw PP                                                                      
   EAUG   =  400.000                                                                                
   RMAX   =    1.123    core radius for proj-oper                                                   
   RAUG   =    1.200    factor for augmentation sphere                                              
   RDEP   =    1.112    radius for radial grids                                                     
   RDEPT  =    0.926    core radius for aug-charge                                                  
                                                                                                    
   Atomic configuration                                                                             
    2 entries                                                                                       
     n  l   j            E        occ.                                                              
     1  0  0.50        -6.4927   1.0000                                                             
     2  1  0.50        -3.4015   0.0000                                                             
   Description                                                                                      
     l       E           TYP  RCUT    TYP  RCUT                                                     
     0     -6.4927494     23  1.100                                                                 
     0      6.8029130     23  1.100                                                                 
     1     -4.0817478     23  1.100                                                                 
  local pseudopotential read in
  atomic valenz-charges read in
  non local Contribution for L=           0  read in
    real space projection operators read in
  non local Contribution for L=           0  read in
    real space projection operators read in
  non local Contribution for L=           1  read in
    real space projection operators read in
    PAW grid and wavefunctions read in
 
   number of l-projection  operators is LMAX  =           3
   number of lm-projection operators is LMMAX =           5
 
 Optimization of the real space projectors (new method)

 maximal supplied QI-value         = 15.12
 optimisation between [QCUT,QGAM] = [ 11.34, 22.83] = [ 36.00,145.93] Ry 
 Optimized for a Real-space Cutoff    1.39 Angstroem

   l    n(q)    QCUT    max X(q) W(low)/X(q) W(high)/X(q)  e(spline) 
   2      9    11.338    60.898    0.39E-03    0.42E-03    0.21E-06
   2      9    11.338    58.894    0.40E-03    0.42E-03    0.22E-06
   0      9    11.338   109.617    0.13E-03    0.20E-04    0.13E-06
   0      9    11.338    75.026    0.13E-03    0.20E-04    0.13E-06
   1      9    11.338    16.344    0.33E-04    0.24E-03    0.18E-06
   1      9    11.338    10.160    0.26E-04    0.19E-03    0.15E-06
 Optimization of the real space projectors (new method)

 maximal supplied QI-value         = 24.76
 optimisation between [QCUT,QGAM] = [ 11.39, 22.77] = [ 36.31,145.25] Ry 
 Optimized for a Real-space Cutoff    1.00 Angstroem

   l    n(q)    QCUT    max X(q) W(low)/X(q) W(high)/X(q)  e(spline) 
   0      7    11.387    20.381    0.39E-03    0.13E-02    0.15E-06
   0      7    11.387    15.268    0.42E-03    0.14E-02    0.17E-06
   1      6    11.387     5.964    0.41E-03    0.11E-02    0.17E-06
   1      6    11.387     5.382    0.39E-03    0.87E-03    0.15E-06
 Optimization of the real space projectors (new method)

 maximal supplied QI-value         = 15.12
 optimisation between [QCUT,QGAM] = [ 11.34, 22.83] = [ 36.00,145.93] Ry 
 Optimized for a Real-space Cutoff    1.56 Angstroem

   l    n(q)    QCUT    max X(q) W(low)/X(q) W(high)/X(q)  e(spline) 
   0     11    11.338    11.565    0.26E-04    0.80E-05    0.70E-07
   0     11    11.338    10.214    0.41E-04    0.15E-04    0.15E-06
   1     10    11.338   189.983    0.18E-03    0.52E-04    0.42E-06
   1     10    11.338   193.105    0.19E-03    0.52E-04    0.42E-06
   2     10    11.338   115.941    0.22E-03    0.42E-03    0.43E-06
   2     10    11.338    76.444    0.21E-03    0.41E-03    0.42E-06
 Optimization of the real space projectors (new method)

 maximal supplied QI-value         = 16.25
 optimisation between [QCUT,QGAM] = [ 11.38, 22.75] = [ 36.24,144.96] Ry 
 Optimized for a Real-space Cutoff    1.27 Angstroem

   l    n(q)    QCUT    max X(q) W(low)/X(q) W(high)/X(q)  e(spline) 
   0      9    11.376    12.277    0.53E-04    0.25E-04    0.25E-07
   0      9    11.376    11.419    0.89E-04    0.67E-05    0.35E-07
   1      8    11.376     4.010    0.13E-03    0.11E-03    0.29E-07
   1      8    11.376     6.182    0.94E-04    0.19E-03    0.11E-06
   2      8    11.376    47.177    0.13E-03    0.88E-03    0.24E-06
   2      8    11.376    42.437    0.13E-03    0.86E-03    0.23E-06
 Optimization of the real space projectors (new method)

 maximal supplied QI-value         = 34.20
 optimisation between [QCUT,QGAM] = [ 11.29, 22.57] = [ 35.68,142.71] Ry 
 Optimized for a Real-space Cutoff    1.16 Angstroem

   l    n(q)    QCUT    max X(q) W(low)/X(q) W(high)/X(q)  e(spline) 
   0      8    11.287    19.460    0.40E-03    0.73E-03    0.16E-06
   0      8    11.287    12.209    0.38E-03    0.70E-03    0.15E-06
   1      7    11.287     4.655    0.22E-03    0.25E-04    0.22E-06
 -----------------------------------------------------------------------------
|                                                                             |
|               ----> ADVICE to this user running VASP <----                  |
|                                                                             |
|     You enforced a specific xc type in the INCAR file but a different       |
|     type was found in the POTCAR file.                                      |
|     I HOPE YOU KNOW WHAT YOU ARE DOING!                                     |
|                                                                             |
 -----------------------------------------------------------------------------

  PAW_PBE Au 04Oct2007                  :
 energy of atom  1       EATOM= -926.0867
 kinetic energy error for atom=    0.0042 (will be added to EATOM!!)
  PAW_PBE O 08Apr2002                   :
 energy of atom  2       EATOM= -432.3788
 kinetic energy error for atom=    0.0224 (will be added to EATOM!!)
  PAW_PBE Sr_sv 07Sep2000               :
 energy of atom  3       EATOM= -843.0319
 kinetic energy error for atom=    0.0012 (will be added to EATOM!!)
  PAW_PBE Ti_sv 26Sep2005               :
 energy of atom  4       EATOM=-1588.0892
 kinetic energy error for atom=    0.0046 (will be added to EATOM!!)
  PAW_PBE H 15Jun2001                   :
 energy of atom  5       EATOM=  -12.4884
 kinetic energy error for atom=    0.0020 (will be added to EATOM!!)
 
 
 POSCAR: Au O  Sr Ti H
  positions in cartesian coordinates
  No initial velocities read in
 exchange correlation table for  LEXCH =       17
   RHO(1)=    0.500       N(1)  =     2000
   RHO(2)=  100.500       N(2)  =     4000

 VTST: version 4.1, (05/19/21)

 CHAIN: initializing optimizer
 
 OPT: Using VASP Dynamics algorithm
 CHAIN: Read ICHAIN            0
 
 POSCAR: Au O  Sr Ti H
  positions in cartesian coordinates
  No initial velocities read in
 


--------------------------------------------------------------------------------------------------------


 ion  position               nearest neighbor table
   1  0.719  0.526  0.754-  15 2.72  16 2.72  14 2.79  44 2.82   2 2.83  29 2.97  46 3.05
   2  0.625  0.567  0.704- 264 2.08  15 2.81   1 2.83  46 2.87  48 2.87  16 2.92  12 2.92  36 3.07
                            11 3.30   5 3.51 380 3.71
   3  0.719  0.259  0.693- 294 2.06 253 2.07  32 2.65  43 2.79  27 2.82 401 3.04 370 4.08 371 4.09

   4  0.291  0.745  0.699- 310 2.06 266 2.06   9 2.78  23 2.82  50 3.08  42 3.38  45 3.52 368 4.24
                           372 4.26
   5  0.514  0.604  0.777-  26 2.69  48 2.74  13 2.84  12 2.91  47 2.92  39 2.93  16 3.01   6 3.12
                            49 3.41  31 3.48   2 3.51
   6  0.577  0.726  0.793-  18 2.73  36 2.73  17 2.77  47 2.81  13 2.99   5 3.12  48 3.14  16 3.48

   7  0.550  0.385  0.830-  10 2.76  33 2.80  29 2.86  20 2.87  31 2.97  34 2.97  12 3.03  41 3.40

   8  0.242  0.467  0.709- 309 2.11  19 2.68  24 2.80  45 2.84  40 2.96  35 3.07 378 4.15
   9  0.283  0.661  0.766-  45 2.70  50 2.75  30 2.77   4 2.78  24 2.80
  10  0.602  0.289  0.788-   7 2.76  41 2.79  32 2.79  43 2.80  27 2.80  25 3.10  34 3.24
  11  0.515  0.483  0.678- 279 2.11 247 2.16  26 2.70  12 2.78  49 2.89  34 2.90 389 3.13   2 3.30
                            46 3.33 375 3.53  37 3.57 386 4.06
  12  0.563  0.486  0.763-  11 2.78  34 2.79  49 2.85  29 2.86  31 2.89   5 2.91   2 2.92  46 2.99
                            16 3.00   7 3.03
  13  0.464  0.695  0.830-  50 2.81   5 2.84  30 2.85  47 2.87  39 2.89  18 2.92   6 2.99
  14  0.765  0.431  0.705- 254 2.01  44 2.73   1 2.79  46 2.79  43 2.88 363 3.75 370 4.22
  15  0.734  0.616  0.694- 292 2.10 250 2.11  36 2.67   1 2.72   2 2.81  28 3.24 380 3.42 365 3.73

  16  0.636  0.583  0.800-   1 2.72  47 2.78  36 2.78  31 2.82   2 2.92  12 3.00   5 3.01  29 3.22
                             6 3.48
  17  0.595  0.785  0.713- 257 2.08   6 2.77  28 2.79  48 2.94  18 2.95  36 3.11 379 4.17 384 4.32

  18  0.484  0.780  0.757-   6 2.73  23 2.82  50 2.86  42 2.86  13 2.92  17 2.95  48 3.41
  19  0.350  0.501  0.697- 291 2.10   8 2.68  49 2.89  37 2.90  24 2.90  40 2.96  45 3.00  26 3.05
                           368 4.12 369 4.26
  20  0.431  0.372  0.815-  33 2.78  21 2.80   7 2.87  49 2.91  41 2.93  40 2.97  38 3.03  34 3.18

  21  0.373  0.299  0.755-  37 2.77  35 2.78  20 2.80  40 2.82  41 2.85  22 2.86
  22  0.441  0.228  0.697- 302 2.01 289 2.15  41 2.74  25 2.79  21 2.86  37 3.59 376 3.89 367 4.35

  23  0.389  0.816  0.707- 290 2.08  42 2.77  50 2.79   4 2.82  18 2.82 372 3.65 384 4.15
  24  0.290  0.536  0.778-   8 2.80   9 2.80  38 2.81  40 2.88  45 2.89  19 2.90  30 2.90
  25  0.556  0.208  0.712- 311 2.15  22 2.79  41 2.84  27 2.87  32 2.87  10 3.10 376 3.97 371 4.37

  26  0.454  0.580  0.703- 291 2.11   5 2.69  11 2.70  42 2.73  49 2.85  48 2.88  19 3.05 386 3.62

  27  0.614  0.319  0.697- 263 2.04  43 2.77  10 2.80   3 2.82  46 2.84  34 2.86  25 2.87  32 3.46
                           370 3.59 375 4.23
  28  0.705  0.758  0.688- 293 2.05 250 2.05  36 2.63  17 2.79 400 3.14  15 3.24 379 3.80 380 4.18

  29  0.657  0.442  0.813-  44 2.85  31 2.86  12 2.86   7 2.86  43 2.90   1 2.97  16 3.22  46 3.48

  30  0.369  0.618  0.820-   9 2.77  39 2.79  38 2.84  13 2.85  24 2.90  50 2.94
  31  0.571  0.510  0.857-  33 2.77  16 2.82  29 2.86  12 2.89  39 2.91  47 2.91   7 2.97   5 3.48

  32  0.664  0.194  0.753-   3 2.65  10 2.79  25 2.87  27 3.46  43 3.51
  33  0.473  0.451  0.879-  31 2.77  20 2.78  39 2.78   7 2.80  38 2.82
  34  0.517  0.377  0.734-  12 2.79  41 2.81  27 2.86  49 2.87  11 2.90   7 2.97  37 3.11  20 3.18
                            10 3.24  46 3.58 375 4.18
  35  0.284  0.338  0.703- 267 2.06  21 2.78  40 2.82  37 2.91   8 3.07 369 3.53 378 4.09
  36  0.669  0.681  0.749-  28 2.63  15 2.67   6 2.73  16 2.78   2 3.07  17 3.11  48 3.26
  37  0.398  0.382  0.690- 303 2.03 289 2.14  21 2.77  19 2.90  35 2.91  40 3.00  49 3.04  34 3.11
                           369 3.40  11 3.57  22 3.59 375 3.77
  38  0.376  0.492  0.833-  24 2.81  33 2.82  30 2.84  49 2.84  40 2.85  39 2.90  20 3.03
  39  0.464  0.574  0.863-  33 2.78  30 2.79  47 2.84  13 2.89  38 2.90  31 2.91   5 2.93
  40  0.327  0.414  0.770-  35 2.82  21 2.82  38 2.85  24 2.88   8 2.96  19 2.96  20 2.97  37 3.00
                            49 3.10
  41  0.487  0.269  0.775-  22 2.74  10 2.79  34 2.81  25 2.84  21 2.85  20 2.93   7 3.40
  42  0.426  0.698  0.699- 256 2.03  26 2.73  23 2.77  50 2.81  18 2.86  48 2.93   4 3.38 386 4.01
                           368 4.14
  43  0.700  0.346  0.757-  27 2.77   3 2.79  10 2.80  44 2.81  14 2.88  29 2.90  46 3.04  32 3.51

  44  0.775  0.429  0.796-  14 2.73  43 2.81   1 2.82  29 2.85
  45  0.256  0.592  0.695- 265 2.03 310 2.11   9 2.70   8 2.84  24 2.89  19 3.00   4 3.52 368 3.58
                           373 3.71
  46  0.648  0.441  0.697- 279 2.19  14 2.79  27 2.84   2 2.87  12 2.99  43 3.04   1 3.05  11 3.33
                           370 3.48  29 3.48  34 3.58
  47  0.566  0.641  0.861-  16 2.78   6 2.81  39 2.84  13 2.87  31 2.91   5 2.92
  48  0.546  0.665  0.701- 280 2.11   5 2.74   2 2.87  26 2.88  42 2.93  17 2.94   6 3.14  36 3.26
                            18 3.41 386 3.49
  49  0.443  0.474  0.756-  38 2.84  12 2.85  26 2.85  34 2.87  19 2.89  11 2.89  20 2.91  37 3.04
                            40 3.10   5 3.41
  50  0.373  0.737  0.778-   9 2.75  23 2.79  13 2.81  42 2.81  18 2.86  30 2.94   4 3.08
  51  0.250  0.189  0.454- 448 1.97 418 2.13 319 2.72 360 2.81 342 2.81 327 2.85
  52  0.749  0.938  0.455- 417 1.95 444 2.00 350 2.82 339 2.84 322 2.84 332 2.88
  53  0.749  0.689  0.457- 432 1.98 446 2.04 325 2.78 362 2.84 348 2.84 316 2.88
  54  0.749  0.438  0.456- 422 1.98 458 2.01 323 2.71 347 2.83 349 2.84 359 2.85
  55  0.750  0.190  0.456- 445 1.98 423 2.10 324 2.76 335 2.78 358 2.85 346 2.86
  56  0.418  0.936  0.454- 424 2.00 440 2.01 357 2.76 345 2.79 329 2.87 320 2.92
  57  0.417  0.685  0.455- 414 1.91 443 2.05 356 2.77 344 2.78 321 2.84 331 2.91
  58  0.417  0.435  0.454- 415 1.96 442 2.02 355 2.77 343 2.78 333 2.82 318 2.86
  59  0.085  0.687  0.453- 439 1.97 413 2.09 352 2.76 340 2.80 330 2.81 336 2.94
  60  0.084  0.937  0.453- 436 1.99 412 2.11 353 2.77 341 2.79 326 2.90 338 2.92
  61  0.083  0.437  0.453- 438 1.97 421 2.12 361 2.76 351 2.78 328 2.80 317 2.92
  62  0.084  0.187  0.453- 437 1.98 433 2.12 360 2.76 385 2.78 337 2.87 327 2.88
  63  0.917  0.812  0.454- 434 1.98 411 2.12 362 2.75 339 2.80 341 2.81 336 2.87
  64  0.916  0.562  0.454- 435 1.98 410 2.11 349 2.78 316 2.79 340 2.80 317 2.89
  65  0.251  0.439  0.455- 449 1.98 420 2.07 318 2.70 343 2.81 351 2.85 328 2.86
  66  0.917  0.062  0.454- 455 1.98 430 2.11 385 2.80 358 2.81 332 2.85 338 2.87
  67  0.916  0.312  0.454- 456 1.97 429 2.08 359 2.79 361 2.80 335 2.84 337 2.90
  68  0.417  0.187  0.454- 441 1.98 416 2.07 354 2.78 334 2.79 342 2.80 319 2.88
  69  0.252  0.687  0.456- 419 1.99 450 2.03 321 2.75 344 2.79 352 2.87 330 2.90
  70  0.917  0.937  0.453- 455 1.98 411 2.11 339 2.78 341 2.78 332 2.89 338 2.91
  71  0.583  0.189  0.455- 452 1.98 426 2.09 324 2.73 334 2.73 354 2.83 346 2.84
  72  1.000  0.126  0.499- 430 1.97 433 1.98 385 2.76 337 2.77 338 2.81
  73  0.584  0.810  0.455- 454 1.98 431 2.10 325 2.72 331 2.75 350 2.84 357 2.85
  74  1.000  0.373  0.499- 429 1.94 421 1.96 361 2.76 337 2.76 317 2.85
  75  1.000  0.627  0.498- 413 1.93 410 1.94 340 2.72 336 2.77 317 2.84
  76  0.334  0.126  0.498- 416 1.95 418 2.02 319 2.74 342 2.74 320 2.79 367 3.46
  77  0.000  0.875  0.500- 412 1.97 411 1.97 341 2.77 336 2.78 338 2.80
  78  0.333  0.874  0.499- 424 1.97 425 2.00 321 2.74 345 2.76 320 2.85 372 3.13
  79  0.667  0.127  0.500- 426 1.98 423 1.99 324 2.70 346 2.80 322 2.84 371 3.38
  80  0.336  0.625  0.504- 414 1.92 419 2.08 368 2.73 321 2.81 318 2.81 344 2.92
  81  0.334  0.379  0.503- 415 1.93 420 2.09 318 2.70 369 2.71 343 2.88 319 2.92
  82  0.666  0.378  0.504- 428 1.96 422 2.04 370 2.71 323 2.72 324 2.89 347 2.90
  83  0.915  0.687  0.453- 434 1.98 410 2.10 316 2.75 340 2.79 362 2.80 336 2.93
  84  0.916  0.437  0.454- 435 1.99 429 2.11 359 2.78 349 2.78 361 2.80 317 2.91
  85  0.916  0.187  0.454- 456 1.98 430 2.10 358 2.79 385 2.79 335 2.81 337 2.89
  86  0.583  0.936  0.454- 451 2.00 431 2.06 357 2.77 350 2.79 329 2.87 322 2.89
  87  0.583  0.686  0.455- 427 1.91 454 2.02 356 2.78 348 2.80 325 2.84 331 2.86
  88  0.583  0.439  0.456- 453 2.01 428 2.02 333 2.71 323 2.78 355 2.84 347 2.85
  89  0.250  0.936  0.454- 425 1.94 447 2.01 345 2.78 353 2.78 320 2.90 326 2.92
  90  0.665  0.626  0.503- 427 1.93 432 2.06 380 2.72 325 2.81 323 2.82 348 2.88
  91  0.585  0.562  0.455- 427 1.99 453 2.00 333 2.77 323 2.79 348 2.79 356 2.84
  92  0.584  0.063  0.455- 451 2.00 426 2.02 346 2.79 354 2.81 322 2.84 329 2.88
  93  0.917  0.687  0.361- 434 1.97 340 2.79 316 2.79
  94  0.917  0.437  0.361- 435 1.97 361 2.79 359 2.79
  95  0.917  0.188  0.361- 456 1.97 385 2.79 358 2.79
  96  0.583  0.938  0.361- 451 1.97 357 2.79 350 2.79
  97  0.583  0.687  0.361- 454 1.97 356 2.79 348 2.79
  98  0.583  0.437  0.361- 453 1.97 355 2.79 347 2.79
  99  0.583  0.188  0.361- 452 1.97 354 2.79 346 2.79
 100  0.250  0.938  0.361- 447 1.97 353 2.79 345 2.79
 101  0.917  0.938  0.361- 455 1.97 341 2.79 339 2.79
 102  0.250  0.687  0.361- 450 1.97 352 2.79 344 2.79
 103  0.250  0.188  0.361- 448 1.97 360 2.79 342 2.79
 104  0.750  0.938  0.361- 444 1.97 350 2.79 339 2.79
 105  0.750  0.687  0.361- 446 1.97 348 2.79 316 2.79
 106  0.750  0.437  0.361- 458 1.97 347 2.79 359 2.79
 107  0.750  0.188  0.361- 445 1.97 346 2.79 358 2.79
 108  0.417  0.938  0.361- 440 1.97 345 2.79 357 2.79
 109  0.417  0.687  0.361- 443 1.97 344 2.79 356 2.79
 110  0.417  0.437  0.361- 442 1.97 343 2.79 355 2.79
 111  0.250  0.437  0.361- 449 1.97 351 2.79 343 2.79
 112  0.083  0.063  0.361- 436 1.97 385 2.79 360 2.79
 113  0.083  0.312  0.361- 437 1.97 361 2.79 351 2.79
 114  0.083  0.563  0.361- 438 1.97 352 2.79 340 2.79
 115  0.917  0.312  0.361- 456 1.97 361 2.79 359 2.79
 116  0.917  0.063  0.361- 455 1.97 385 2.79 358 2.79
 117  0.583  0.812  0.361- 454 1.97 357 2.79 350 2.79
 118  0.583  0.563  0.361- 453 1.97 356 2.79 348 2.79
 119  0.583  0.312  0.361- 452 1.97 355 2.79 347 2.79
 120  0.583  0.063  0.361- 451 1.97 354 2.79 346 2.79
 121  0.250  0.812  0.361- 450 1.97 353 2.79 345 2.79
 122  0.250  0.563  0.361- 449 1.97 352 2.79 344 2.79
 123  0.250  0.312  0.361- 448 1.97 351 2.79 343 2.79
 124  0.250  0.063  0.361- 447 1.97 360 2.79 342 2.79
 125  0.750  0.812  0.361- 446 1.97 350 2.79 339 2.79
 126  0.750  0.563  0.361- 458 1.97 348 2.79 316 2.79
 127  0.750  0.312  0.361- 445 1.97 347 2.79 359 2.79
 128  0.750  0.063  0.361- 444 1.97 346 2.79 358 2.79
 129  0.417  0.812  0.361- 443 1.97 345 2.79 357 2.79
 130  0.417  0.563  0.361- 442 1.97 344 2.79 356 2.79
 131  0.417  0.312  0.361- 441 1.97 343 2.79 355 2.79
 132  0.417  0.063  0.361- 440 1.97 342 2.79 354 2.79
 133  0.083  0.812  0.361- 439 1.97 353 2.79 341 2.79
 134  0.417  0.188  0.361- 441 1.97 342 2.79 354 2.79
 135  0.083  0.938  0.361- 436 1.97 353 2.79 341 2.79
 136  0.083  0.687  0.361- 439 1.97 352 2.79 340 2.79
 137  0.083  0.437  0.361- 438 1.97 361 2.79 351 2.79
 138  0.833  0.500  0.407- 458 1.97 435 1.97 316 2.79 359 2.79 349 2.88
 139  0.833  0.750  0.407- 446 1.97 434 1.97 339 2.79 316 2.79 362 2.87
 140  0.083  0.062  0.454- 436 1.98 433 2.12 360 2.81 385 2.81 326 2.85 338 2.87
 141  0.083  0.312  0.454- 437 1.98 421 2.10 351 2.80 361 2.81 337 2.85 327 2.89
 142  0.084  0.562  0.454- 438 1.98 413 2.11 328 2.76 352 2.79 340 2.81 317 2.91
 143  0.083  0.812  0.454- 439 1.98 412 2.11 330 2.77 353 2.80 341 2.81 336 2.88
 144  0.417  0.062  0.455- 416 1.96 440 2.00 354 2.82 342 2.83 320 2.84 329 2.84
 145  0.415  0.311  0.458- 415 1.91 441 2.04 334 2.79 319 2.81 343 2.84 355 2.89
 146  0.416  0.559  0.458- 414 1.97 442 2.02 333 2.73 318 2.74 344 2.88 356 2.90
 147  0.417  0.810  0.455- 443 1.97 424 2.09 321 2.74 331 2.78 345 2.84 357 2.85
 148  0.749  0.064  0.453- 444 2.00 423 2.01 346 2.75 358 2.78 322 2.89 332 2.94
 149  0.747  0.314  0.455- 422 1.99 445 2.03 347 2.75 324 2.80 359 2.84 335 2.92
 150  0.748  0.564  0.454- 432 1.99 458 2.00 348 2.74 323 2.76 316 2.80 349 2.93
 151  0.749  0.813  0.453- 446 1.98 417 2.09 350 2.76 339 2.79 325 2.82 362 2.88
 152  0.251  0.062  0.454- 447 1.98 418 2.11 342 2.80 360 2.82 320 2.84 326 2.89
 153  0.913  0.311  0.547- 429 1.86 409 2.19 335 2.67 337 2.78 363 2.83 381 3.42
 154  0.252  0.314  0.454- 420 1.97 448 2.01 343 2.74 319 2.76 351 2.82 327 2.95
 155  0.252  0.565  0.454- 419 1.99 449 2.01 344 2.74 318 2.76 352 2.80 328 2.93
 156  0.250  0.810  0.456- 450 1.99 425 2.07 321 2.75 330 2.82 345 2.84 353 2.85
 157  0.833  0.250  0.407- 445 1.97 456 1.97 359 2.79 358 2.79 335 2.90
 158  0.585  0.314  0.454- 428 1.96 452 2.02 347 2.76 324 2.79 355 2.80 334 2.87
 159  0.833  0.000  0.407- 444 1.97 455 1.97 358 2.79 339 2.79 332 2.98
 160  0.500  0.500  0.407- 453 1.97 442 1.97 355 2.79 356 2.79 333 2.80
 161  0.083  0.188  0.361- 437 1.97 385 2.79 360 2.79
 162  0.000  0.000  0.407- 455 1.97 436 1.97 385 2.79 341 2.79 338 2.99
 163  0.000  0.250  0.407- 456 1.97 437 1.97 361 2.79 385 2.79 337 2.95
 164  0.000  0.500  0.407- 435 1.97 438 1.97 340 2.79 361 2.79 317 3.00
 165  0.000  0.750  0.407- 434 1.97 439 1.97 341 2.79 340 2.79 336 2.99
 166  0.333  0.000  0.407- 440 1.97 447 1.97 342 2.79 345 2.79 320 2.97
 167  0.333  0.250  0.407- 441 1.97 448 1.97 343 2.79 342 2.79 319 2.86
 168  0.333  0.500  0.407- 442 1.97 449 1.97 343 2.79 344 2.79 318 2.82
 169  0.333  0.750  0.407- 443 1.97 450 1.97 345 2.79 344 2.79 321 2.84
 170  0.667  0.000  0.407- 444 1.97 451 1.97 346 2.79 350 2.79 322 2.96
 171  0.667  0.250  0.407- 445 1.97 452 1.97 347 2.79 346 2.79 324 2.83
 172  0.667  0.500  0.407- 458 1.97 453 1.97 347 2.79 348 2.79 323 2.81
 173  0.667  0.750  0.407- 446 1.97 454 1.97 350 2.79 348 2.79 325 2.85
 174  0.167  0.000  0.407- 447 1.97 436 1.97 360 2.79 353 2.79 326 2.99
 175  0.167  0.250  0.407- 448 1.97 437 1.97 351 2.79 360 2.79 327 2.98
 176  0.167  0.500  0.407- 449 1.97 438 1.97 351 2.79 352 2.79 328 2.86
 177  0.167  0.750  0.407- 450 1.97 439 1.97 353 2.79 352 2.79 330 2.89
 178  0.500  0.000  0.407- 451 1.97 440 1.97 354 2.79 357 2.79 329 2.95
 179  0.500  0.250  0.407- 452 1.97 441 1.97 355 2.79 354 2.79 334 2.84
 180  0.500  0.750  0.407- 454 1.97 443 1.97 357 2.79 356 2.79 331 2.91
 181  0.167  0.124  0.499- 418 1.95 433 2.01 326 2.75 360 2.76 327 2.78
 182  0.917  0.064  0.547- 430 1.85 387 2.21 338 2.70 332 2.72 383 3.17 315 3.23
 183  0.168  0.873  0.500- 425 1.93 412 2.03 330 2.72 353 2.79 326 2.86
 184  0.252  0.188  0.547- 418 1.87 395 2.13 319 2.64 327 2.72 367 3.14 377 3.34
 185  0.749  0.934  0.548- 417 1.83 402 2.26 322 2.76 332 2.78 379 2.92 364 3.17
 186  0.752  0.680  0.553- 432 1.96 400 1.97 380 2.65 365 2.85 362 2.96 325 3.01
 187  0.753  0.435  0.549- 422 1.92 399 2.06 370 2.73 349 2.82 323 2.87 363 2.88
 188  0.423  0.444  0.546- 408 1.88 415 2.06 333 2.61 318 2.85 375 2.87 369 3.12
 189  0.423  0.688  0.547- 414 1.95 398 2.00 331 2.67 386 2.76 321 2.88 368 2.93
 190  0.754  0.185  0.551- 401 1.91 423 1.97 335 2.76 324 2.93 383 3.04 371 3.16
 191  0.416  0.937  0.546- 424 1.85 396 2.25 320 2.71 329 2.72 372 2.89 384 3.08
 192  0.084  0.939  0.546- 412 1.84 406 2.18 326 2.67 338 2.68 374 3.28 366 3.36
 193  0.416  0.192  0.547- 397 1.85 416 2.04 334 2.72 319 2.73 376 3.11 367 3.26
 194  0.087  0.690  0.545- 413 1.85 405 2.21 330 2.62 336 2.73 373 2.78
 195  0.083  0.439  0.545- 421 1.84 404 2.23 317 2.66 328 2.67 378 3.08 381 3.37
 196  0.085  0.189  0.546- 433 1.84 403 2.20 327 2.63 337 2.68 315 3.33 377 3.36
 197  0.500  0.126  0.500- 416 1.99 426 1.99 334 2.73 354 2.78 329 2.82 376 3.20
 198  1.000  0.499  0.594- 457 1.94 404 1.95 317 2.62 381 2.90 382 3.13
 199  0.999  0.754  0.592- 405 1.94 407 1.96 336 2.57 366 2.84 382 3.33
 200  0.334  0.254  0.593- 397 1.85 395 2.07 369 2.69 319 2.72 367 3.07
 201  0.334  1.000  0.592- 396 2.00 394 2.03 320 2.59 372 2.72 367 2.75
 202  1.000  0.999  0.593- 387 2.00 406 2.01 338 2.60 315 2.85 366 2.91
 203  0.003  0.250  0.591- 409 1.87 403 1.99 337 2.57 381 2.96 315 3.00
 204  0.333  0.497  0.591- 408 1.85 390 2.16 318 2.70 369 2.74 368 2.85
 205  0.336  0.740  0.591- 398 1.92 391 2.06 368 2.59 321 2.69 372 3.11
 206  0.664  0.247  0.589- 401 1.83 392 2.06 324 2.65 370 2.84 371 2.87
 207  0.666  0.001  0.592- 393 2.01 402 2.02 322 2.59 379 2.71 371 2.79
 208  0.666  0.742  0.590- 388 1.96 400 2.04 380 2.58 325 2.64 379 3.14
 209  0.667  0.493  0.591- 389 1.82 399 2.13 370 2.67 323 2.71 380 2.98
 210  0.167  0.998  0.592- 394 1.98 406 2.01 326 2.57 377 2.90 374 2.91
 211  0.169  0.249  0.593- 395 1.92 403 2.00 327 2.61 378 2.78 377 2.96
 212  0.171  0.750  0.595- 391 1.86 405 2.16 330 2.76 373 2.76 374 2.83
 213  0.248  0.436  0.549- 390 1.94 420 1.98 369 2.64 318 2.82 328 2.84 378 3.03
 214  0.165  0.503  0.588- 390 1.83 404 2.05 328 2.57 373 2.80 378 2.99
 215  0.249  0.683  0.552- 391 1.96 419 1.98 368 2.75 373 2.90 330 2.91 321 2.93
 216  0.581  0.186  0.550- 426 1.94 392 1.97 334 2.76 324 2.83 376 2.96 371 3.07
 217  0.915  0.813  0.547- 411 1.84 407 2.18 362 2.68 336 2.72 364 3.23 366 3.30
 218  0.917  0.563  0.547- 410 1.84 457 2.23 317 2.68 349 2.71 365 2.85
 219  0.581  0.560  0.549- 389 1.89 427 2.09 386 2.69 333 2.75 380 2.83 323 2.86
 220  0.586  0.815  0.550- 431 1.91 388 2.06 325 2.75 331 2.82 379 2.92 384 3.03
 221  0.583  0.311  0.546- 428 1.89 392 2.12 324 2.74 334 2.76 375 2.79 370 2.88
 222  0.583  0.063  0.547- 426 1.84 393 2.23 322 2.71 329 2.72 376 2.95 371 3.05
 223  0.254  0.813  0.551- 391 1.82 425 2.08 321 2.78 372 2.87 330 2.90 374 3.18
 224  0.252  0.559  0.544- 419 1.92 390 2.04 318 2.63 328 2.78 368 2.88 373 3.19
 225  0.250  0.314  0.546- 420 1.85 395 2.31 369 2.66 327 2.72 319 2.73 378 3.05
 226  0.251  0.063  0.547- 418 1.84 394 2.25 320 2.68 326 2.73 367 3.03 377 3.26
 227  0.749  0.808  0.546- 400 1.84 417 2.03 325 2.67 362 2.75 379 3.14 364 3.31
 228  0.747  0.558  0.545- 432 1.96 399 1.98 323 2.61 349 2.77 380 2.86 365 3.23
 229  0.414  0.812  0.548- 398 1.96 424 1.96 321 2.72 331 2.78 372 2.92 384 3.11
 230  0.749  0.060  0.545- 423 1.83 402 2.22 322 2.65 332 2.69 371 3.19 383 3.27
 231  0.750  0.311  0.549- 401 1.95 422 2.01 370 2.72 335 2.78 324 2.83 363 2.96
 232  0.416  0.320  0.553- 397 1.95 415 1.98 375 2.66 369 2.74 334 2.99 319 3.01
 233  0.420  0.565  0.555- 408 1.90 414 2.13 386 2.65 368 2.71 333 2.92 318 3.04
 234  0.417  0.065  0.547- 416 1.84 396 2.27 320 2.74 329 2.77 376 2.91 367 3.07
 235  0.085  0.813  0.547- 412 1.85 405 2.18 330 2.67 336 2.74 374 3.17 366 3.32
 236  0.083  0.564  0.546- 413 1.84 404 2.22 317 2.70 328 2.73 373 2.83
 237  0.087  0.314  0.547- 421 1.83 403 2.25 327 2.68 337 2.79 378 2.88 381 3.37
 238  0.082  0.063  0.548- 433 1.84 406 2.22 338 2.70 326 2.71 315 3.17 377 3.28
 239  0.916  0.939  0.546- 411 1.84 387 2.20 332 2.65 338 2.69 364 3.26 366 3.33
 240  0.913  0.689  0.545- 410 1.84 407 2.23 362 2.63 336 2.72 365 2.82
 241  0.583  0.938  0.546- 431 1.84 393 2.24 322 2.68 329 2.68 379 2.97 384 3.08
 242  0.914  0.189  0.546- 430 1.86 409 2.14 335 2.64 337 2.74 383 3.18 315 3.39
 243  0.915  0.437  0.546- 429 1.85 457 2.25 349 2.68 317 2.71 363 2.88 381 3.38
 244  0.577  0.436  0.552- 389 1.96 428 2.04 375 2.62 333 2.76 370 2.90 323 3.01
 245  0.580  0.686  0.547- 427 1.92 388 2.12 386 2.66 331 2.70 380 2.82 325 2.84
 246  0.252  0.937  0.545- 425 1.83 394 2.22 320 2.67 326 2.74 372 2.93 374 3.32
 247  0.498  0.504  0.609- 408 2.10  11 2.16 389 2.24 386 2.73 375 2.99 333 3.26
 248  0.499  0.253  0.590- 392 1.88 397 2.06 375 2.65 334 2.67 376 3.00
 249  0.499  1.000  0.591- 396 2.00 393 2.00 329 2.56 376 2.73 384 2.81
 250  0.754  0.693  0.657-  28 2.05  15 2.11 400 2.40 365 3.02 380 3.19
 251  0.748  0.937  0.640- 402 1.80 364 2.49 379 2.53
 252  0.253  0.186  0.641- 395 1.74 367 2.52 377 2.55
 253  0.744  0.194  0.647- 401 2.02   3 2.07 371 2.69 383 2.80
 254  0.756  0.436  0.639- 399 1.98  14 2.01 363 2.61 370 2.80
 255  0.417  0.935  0.640- 396 1.79 384 2.52 372 2.58
 256  0.422  0.676  0.634-  42 2.03 398 2.03 386 2.55 368 2.63
 257  0.591  0.810  0.646- 388 1.94  17 2.08 379 2.64 384 2.81
 258  0.916  0.063  0.641- 387 1.80 383 2.50 315 2.50
 259  0.913  0.561  0.643- 457 1.79 382 2.46 365 2.55
 260  0.916  0.312  0.639- 409 1.81 381 2.49 363 2.57
 261  0.914  0.813  0.642- 407 1.79 364 2.49 366 2.51
 262  0.581  0.065  0.640- 393 1.79 371 2.47 376 2.52
 263  0.585  0.319  0.634- 392 1.95  27 2.04 375 2.57 370 2.65
 264  0.592  0.564  0.640- 389 1.97   2 2.08 380 2.63 386 2.85
 265  0.248  0.574  0.629- 390 1.99  45 2.03 368 2.55 373 2.55
 266  0.262  0.798  0.647- 391 1.96   4 2.06 372 2.82 374 2.94
 267  0.250  0.316  0.641- 395 1.94  35 2.06 378 2.59 369 2.65
 268  0.251  0.059  0.642- 394 1.79 367 2.49 377 2.50
 269  0.917  0.563  0.361- 435 1.97 340 2.79 316 2.79
 270  0.500  0.373  0.500- 428 1.98 415 1.99 334 2.80 355 2.80 333 2.83 375 2.84
 271  0.500  0.873  0.501- 424 1.98 431 1.99 331 2.68 357 2.82 329 2.83 384 3.27
 272  0.500  0.621  0.500- 427 1.98 414 1.98 333 2.70 356 2.79 386 2.82 331 2.94
 273  0.832  0.623  0.500- 432 1.90 410 2.05 349 2.75 316 2.79 362 2.87 365 3.10
 274  0.833  0.875  0.498- 417 1.95 411 2.01 339 2.74 362 2.75 332 2.81
 275  0.833  0.373  0.499- 422 1.90 429 2.03 359 2.77 335 2.79 349 2.83 363 3.10
 276  0.833  0.124  0.498- 423 1.96 430 2.01 358 2.74 332 2.76 335 2.79 383 3.53
 277  0.167  0.376  0.498- 420 1.89 421 2.03 351 2.72 328 2.76 327 2.87 378 3.31
 278  0.168  0.624  0.500- 419 1.89 413 2.07 328 2.78 352 2.79 330 2.84 373 3.06
 279  0.582  0.438  0.646-  11 2.11 389 2.11  46 2.19 375 2.84 370 2.97
 280  0.580  0.685  0.638- 388 1.87  48 2.11 386 2.61 380 2.76
 281  0.919  0.186  0.640- 409 1.80 315 2.52 383 2.54
 282  0.582  0.935  0.639- 393 1.79 384 2.49 379 2.51
 283  0.830  0.750  0.593- 400 1.86 407 2.10 362 2.71 365 2.79 364 2.90
 284  0.832  0.248  0.600- 459 0.97 401 2.15 409 2.21 383 2.79 363 2.81 335 2.90
 285  0.833  0.504  0.589- 399 1.83 457 2.06 349 2.59 365 2.78 363 2.93
 286  0.832  0.002  0.592- 402 1.99 387 2.02 332 2.58 383 2.84 364 2.92
 287  0.501  0.756  0.593- 388 1.99 398 2.02 331 2.67 384 2.72 386 2.93
 288  0.417  0.065  0.640- 396 1.80 367 2.50 376 2.52
 289  0.427  0.305  0.655-  37 2.14  22 2.15 397 2.31 375 2.93 369 3.40
 290  0.412  0.812  0.640- 398 1.95  23 2.08 372 2.60 384 2.69
 291  0.398  0.551  0.652-  19 2.10  26 2.11 408 2.16 368 2.80 386 3.47
 292  0.752  0.571  0.634- 399 1.92  15 2.10 365 2.61 380 2.68
 293  0.741  0.810  0.640- 400 1.98  28 2.05 379 2.59 364 2.69
 294  0.747  0.312  0.641- 401 2.03   3 2.06 370 2.68 363 2.79
 295  0.748  0.067  0.639- 402 1.80 371 2.47 383 2.49
 296  0.085  0.311  0.641- 403 1.80 381 2.50 378 2.51
 297  0.667  0.875  0.499- 431 1.97 417 2.00 325 2.74 350 2.77 322 2.81 379 3.23
 298  0.087  0.562  0.642- 404 1.80 382 2.46 373 2.54
 299  0.085  0.060  0.642- 406 1.80 315 2.49 377 2.49
 300  0.087  0.437  0.639- 404 1.80 378 2.50 381 2.51
 301  0.084  0.185  0.641- 403 1.79 377 2.50 315 2.50
 302  0.419  0.188  0.640- 397 1.99  22 2.01 376 2.63 367 2.69
 303  0.415  0.419  0.630-  37 2.03 408 2.07 375 2.53 369 2.59
 304  0.084  0.935  0.641- 406 1.80 374 2.48 366 2.49
 305  0.083  0.687  0.640- 405 1.80 382 2.45 373 2.51
 306  0.912  0.436  0.640- 457 1.80 363 2.52 381 2.54
 307  0.917  0.687  0.640- 407 1.80 382 2.45 365 2.51
 308  0.914  0.937  0.641- 387 1.80 364 2.47 366 2.50
 309  0.241  0.442  0.642- 390 1.90   8 2.11 378 2.62 369 2.91
 310  0.254  0.677  0.664-   4 2.06  45 2.11 368 3.03 373 3.12
 311  0.578  0.190  0.644- 392 1.89  25 2.15 376 2.69 371 2.69
 312  0.252  0.930  0.638- 394 1.81 374 2.46 372 2.49
 313  0.084  0.812  0.642- 405 1.79 374 2.47 366 2.53
 314  0.917  0.812  0.361- 434 1.97 341 2.79 339 2.79
 315  0.002  0.121  0.620- 299 2.49 258 2.50 301 2.50 281 2.52 202 2.85 203 3.00 238 3.17 182 3.23
                           196 3.33 242 3.39 406 3.40 409 3.41 387 3.42 403 3.48 433 3.90 377 3.93
 316  0.833  0.625  0.407-  83 2.75  64 2.79 273 2.79 126 2.79 105 2.79 269 2.79  93 2.79 138 2.79
                           139 2.79 150 2.80  53 2.88 458 3.42 446 3.42 435 3.42 434 3.42 432 3.45
 317  0.999  0.500  0.507- 198 2.62 195 2.66 218 2.68 236 2.70 243 2.71  75 2.84  74 2.85  64 2.89
                            84 2.91 142 2.91  61 2.92 164 3.00 410 3.39 413 3.40 429 3.42 421 3.42
 318  0.331  0.499  0.501- 224 2.63 204 2.70  81 2.70  65 2.70 146 2.74 155 2.76  80 2.81 213 2.82
                           168 2.82 188 2.85  58 2.86 233 3.04 408 3.35 449 3.41 419 3.42 415 3.44
 319  0.330  0.248  0.502- 184 2.64 200 2.72  51 2.72 225 2.73 193 2.73  76 2.74 154 2.76 145 2.81
                           167 2.86  68 2.88  81 2.92 232 3.01 397 3.31 418 3.35 420 3.41 448 3.43
 320  0.333  0.001  0.506- 201 2.59 246 2.67 226 2.68 191 2.71 234 2.74  76 2.79 152 2.84 144 2.84
                            78 2.85  89 2.90  56 2.92 166 2.97 416 3.33 425 3.38 418 3.40 424 3.41
 321  0.334  0.751  0.502- 205 2.69 229 2.72 147 2.74  78 2.74 156 2.75  69 2.75 223 2.78  80 2.81
                            57 2.84 169 2.84 189 2.88 215 2.93 391 3.37 398 3.40 414 3.41 424 3.42
 322  0.666  0.000  0.506- 207 2.59 230 2.65 241 2.68 222 2.71 185 2.76 297 2.81  92 2.84  79 2.84
                            52 2.84  86 2.89 148 2.89 170 2.96 426 3.37 417 3.37 423 3.38 431 3.39
 323  0.668  0.500  0.501- 228 2.61 209 2.71  54 2.71  82 2.72 150 2.76  88 2.78  91 2.79 172 2.81
                            90 2.82 219 2.86 187 2.87 244 3.01 389 3.35 422 3.41 458 3.41 432 3.42
 324  0.665  0.248  0.501- 206 2.65  79 2.70  71 2.73 221 2.74  55 2.76 158 2.79 149 2.80 171 2.83
                           231 2.83 216 2.83  82 2.89 190 2.93 401 3.30 428 3.39 426 3.40 452 3.43
 325  0.666  0.752  0.502- 208 2.64 227 2.67  73 2.72 297 2.74 220 2.75  53 2.78  90 2.81 151 2.82
                            87 2.84 245 2.84 173 2.85 186 3.01 400 3.35 431 3.38 427 3.39 454 3.45
 326  0.166  0.001  0.507- 210 2.57 192 2.67 238 2.71 226 2.73 246 2.74 181 2.75 140 2.85 183 2.86
                           152 2.89  60 2.90  89 2.92 174 2.99 425 3.37 418 3.38 433 3.39 412 3.44
 327  0.166  0.248  0.506- 211 2.61 196 2.63 237 2.68 184 2.72 225 2.72 181 2.78  51 2.85 277 2.87
                            62 2.88 141 2.89 154 2.95 175 2.98 420 3.37 418 3.39 433 3.39 421 3.46
 328  0.163  0.500  0.502- 214 2.57 195 2.67 236 2.73 142 2.76 277 2.76 224 2.78 278 2.78  61 2.80
                           213 2.84  65 2.86 176 2.86 155 2.93 390 3.33 421 3.40 419 3.42 413 3.43
 329  0.500  0.999  0.506- 249 2.56 241 2.68 222 2.72 191 2.72 234 2.77 197 2.82 271 2.83 144 2.84
                            86 2.87  56 2.87  92 2.88 178 2.95 424 3.38 416 3.39 431 3.39 426 3.40
 330  0.164  0.751  0.503- 194 2.62 235 2.67 183 2.72 212 2.76 143 2.77  59 2.81 156 2.82 278 2.84
                           177 2.89  69 2.90 223 2.90 215 2.91 391 3.34 412 3.37 413 3.43 419 3.45
 331  0.501  0.753  0.504- 287 2.67 189 2.67 271 2.68 245 2.70  73 2.75 229 2.78 147 2.78 220 2.82
                            87 2.86  57 2.91 180 2.91 272 2.94 431 3.38 398 3.38 424 3.41 427 3.42
 332  0.834  0.000  0.506- 286 2.58 239 2.65 230 2.69 182 2.72 276 2.76 185 2.78 274 2.81  66 2.85
                            52 2.88  70 2.89 148 2.94 159 2.98 417 3.36 423 3.37 411 3.41 430 3.41
 333  0.501  0.500  0.500- 188 2.61 272 2.70  88 2.71 146 2.73 219 2.75 244 2.76  91 2.77 160 2.80
                            58 2.82 270 2.83 233 2.92 247 3.26 453 3.41 428 3.43 442 3.44 427 3.45
 334  0.500  0.248  0.502- 248 2.67 193 2.72 197 2.73  71 2.73 216 2.76 221 2.76  68 2.79 145 2.79
                           270 2.80 179 2.84 158 2.87 232 2.99 397 3.40 426 3.40 392 3.40 428 3.42
 335  0.834  0.248  0.504- 242 2.64 153 2.67 190 2.76 231 2.78  55 2.78 275 2.79 276 2.79  85 2.81
                            67 2.84 284 2.90 157 2.90 149 2.92 430 3.38 429 3.43 423 3.43 422 3.44
 336  1.000  0.751  0.507- 199 2.57 240 2.72 217 2.72 194 2.73 235 2.74  75 2.77  77 2.78  63 2.87
                           143 2.88  83 2.93  59 2.94 165 2.99 413 3.39 410 3.39 412 3.40 411 3.40
 337  0.001  0.249  0.505- 203 2.57 196 2.68 242 2.74  74 2.76  72 2.77 153 2.78 237 2.79 141 2.85
                            62 2.87  85 2.89  67 2.90 163 2.95 421 3.38 433 3.38 429 3.40 430 3.41
 338  1.000  0.000  0.507- 202 2.60 192 2.68 239 2.69 238 2.70 182 2.70  77 2.80  72 2.81  66 2.87
                           140 2.87  70 2.91  60 2.92 162 2.99 411 3.41 433 3.41 412 3.41 430 3.41
 339  0.833  0.875  0.407- 274 2.74  70 2.78 151 2.79 125 2.79 104 2.79 314 2.79 101 2.79 139 2.79
                           159 2.79  63 2.80  52 2.84 446 3.42 434 3.42 444 3.42 455 3.42 417 3.48
 340  0.000  0.625  0.407-  75 2.72 269 2.79  93 2.79 114 2.79 136 2.79 164 2.79 165 2.79  83 2.79
                            59 2.80  64 2.80 142 2.81 435 3.42 434 3.42 438 3.42 439 3.42 413 3.53
 341  0.000  0.875  0.407-  77 2.77  70 2.78  60 2.79 314 2.79 133 2.79 101 2.79 135 2.79 165 2.79
                           162 2.79  63 2.81 143 2.81 434 3.42 439 3.42 455 3.42 436 3.42 412 3.57
 342  0.333  0.125  0.407-  76 2.74 132 2.79 134 2.79 124 2.79 103 2.79 166 2.79 167 2.79 152 2.80
                            68 2.80  51 2.81 144 2.83 440 3.42 441 3.42 447 3.42 448 3.42 416 3.47
 343  0.333  0.375  0.407- 154 2.74  58 2.78 110 2.79 131 2.79 111 2.79 123 2.79 167 2.79 168 2.79
                            65 2.81 145 2.84  81 2.88 441 3.42 442 3.42 448 3.42 449 3.42 415 3.43
 344  0.333  0.625  0.407- 155 2.74  57 2.78  69 2.79 130 2.79 109 2.79 122 2.79 102 2.79 168 2.79
                           169 2.79 146 2.88  80 2.92 442 3.42 443 3.42 449 3.42 450 3.42 414 3.45
 345  0.333  0.875  0.407-  78 2.76  89 2.78 129 2.79 121 2.79 108 2.79 100 2.79 169 2.79 166 2.79
                            56 2.79 156 2.84 147 2.84 443 3.42 450 3.42 440 3.42 447 3.42 425 3.49
 346  0.667  0.125  0.407- 148 2.75 128 2.79 107 2.79 120 2.79  99 2.79 170 2.79 171 2.79  92 2.79
                            79 2.80  71 2.84  55 2.86 444 3.42 445 3.42 451 3.42 452 3.42 426 3.53
 347  0.667  0.375  0.407- 149 2.75 158 2.76 106 2.79 127 2.79  98 2.79 119 2.79 171 2.79 172 2.79
                            54 2.83  88 2.85  82 2.90 445 3.42 458 3.42 453 3.42 452 3.42 428 3.48
 348  0.667  0.625  0.407- 150 2.74 126 2.79 105 2.79 118 2.79  97 2.79 172 2.79 173 2.79  91 2.79
                            87 2.80  53 2.84  90 2.88 458 3.42 446 3.42 453 3.42 454 3.42 427 3.43
 349  0.836  0.500  0.503- 285 2.59 243 2.68 218 2.71 273 2.75 228 2.77  64 2.78  84 2.78 187 2.82
                           275 2.83  54 2.84 138 2.88 150 2.93 399 3.36 422 3.41 432 3.41 410 3.42
 350  0.667  0.875  0.407- 151 2.76 297 2.77 125 2.79 104 2.79 117 2.79  96 2.79 173 2.79 170 2.79
                            86 2.79  52 2.82  73 2.84 446 3.42 454 3.42 444 3.42 451 3.42 417 3.50
 351  0.167  0.375  0.407- 277 2.72  61 2.78 111 2.79 137 2.79 123 2.79 113 2.79 176 2.79 175 2.79
                           141 2.80 154 2.82  65 2.85 448 3.42 449 3.42 437 3.42 438 3.42 420 3.44
 352  0.167  0.625  0.407-  59 2.76 142 2.79 278 2.79 122 2.79 102 2.79 114 2.79 136 2.79 176 2.79
                           177 2.79 155 2.80  69 2.87 449 3.42 450 3.42 438 3.42 439 3.42 419 3.46
 353  0.167  0.875  0.407-  60 2.77  89 2.78 183 2.79 121 2.79 133 2.79 100 2.79 135 2.79 177 2.79
                           174 2.79 143 2.80 156 2.85 450 3.42 439 3.42 447 3.42 436 3.42 425 3.47
 354  0.500  0.125  0.407-  68 2.78 197 2.78 120 2.79  99 2.79 132 2.79 134 2.79 178 2.79 179 2.79
                            92 2.81 144 2.82  71 2.83 451 3.42 452 3.42 440 3.42 441 3.42 416 3.50
 355  0.500  0.375  0.407-  58 2.77  98 2.79 119 2.79 110 2.79 131 2.79 160 2.79 179 2.79 158 2.80
                           270 2.80  88 2.84 145 2.89 452 3.42 453 3.42 441 3.42 442 3.42 415 3.45
 356  0.500  0.625  0.407-  57 2.77  87 2.78 118 2.79  97 2.79 130 2.79 109 2.79 160 2.79 180 2.79
                           272 2.79  91 2.84 146 2.90 453 3.42 454 3.42 442 3.42 443 3.42 427 3.44
 357  0.500  0.875  0.407-  56 2.76  86 2.77 117 2.79 129 2.79  96 2.79 108 2.79 180 2.79 178 2.79
                           271 2.82 147 2.85  73 2.85 454 3.42 443 3.42 451 3.42 440 3.42 424 3.52
 358  0.833  0.125  0.407- 276 2.74 148 2.78  85 2.79 128 2.79 107 2.79 116 2.79  95 2.79 159 2.79
                           157 2.79  66 2.81  55 2.85 444 3.42 445 3.42 455 3.42 456 3.42 423 3.52
 359  0.833  0.375  0.407- 275 2.77  84 2.78  67 2.79 106 2.79 127 2.79  94 2.79 115 2.79 157 2.79
                           138 2.79 149 2.84  54 2.85 445 3.42 458 3.42 456 3.42 435 3.42 422 3.45
 360  0.167  0.125  0.407- 181 2.76  62 2.76 124 2.79 103 2.79 112 2.79 161 2.79 174 2.79 175 2.79
                           140 2.81  51 2.81 152 2.82 447 3.42 448 3.42 436 3.42 437 3.42 418 3.57
 361  0.000  0.375  0.407-  74 2.76  61 2.76  94 2.79 115 2.79 137 2.79 113 2.79 163 2.79 164 2.79
                            84 2.80  67 2.80 141 2.81 435 3.42 456 3.42 438 3.42 437 3.42 429 3.54
 362  0.836  0.752  0.503- 240 2.63 217 2.68 283 2.71 227 2.75 274 2.75  63 2.75  83 2.80  53 2.84
                           139 2.87 273 2.87 151 2.88 186 2.96 400 3.31 411 3.37 410 3.43 434 3.45
 363  0.837  0.374  0.602- 306 2.52 260 2.57 254 2.61 294 2.79 284 2.81 459 2.82 153 2.83 243 2.88
                           187 2.88 285 2.93 231 2.96 275 3.10 457 3.43 399 3.46 429 3.47 409 3.49
 364  0.832  0.876  0.618- 308 2.47 251 2.49 261 2.49 293 2.69 283 2.90 286 2.92 185 3.17 217 3.23
                           239 3.26 227 3.31 387 3.44 402 3.45 400 3.45 407 3.47 411 3.91 366 3.95
 365  0.841  0.627  0.603- 307 2.51 259 2.55 292 2.61 285 2.78 283 2.79 240 2.82 218 2.85 186 2.85
                           250 3.02 273 3.10 228 3.23 407 3.33 457 3.37 399 3.42 410 3.44 400 3.53
 366  0.999  0.875  0.622- 304 2.49 308 2.50 261 2.51 313 2.53 199 2.84 202 2.91 217 3.30 235 3.32
                           239 3.33 192 3.36 407 3.40 405 3.41 387 3.45 406 3.45 364 3.95 411 3.96
 367  0.331  0.119  0.614- 268 2.49 288 2.50 252 2.52 302 2.69 201 2.75 226 3.03 200 3.07 234 3.07
                           184 3.14 193 3.26 394 3.36 396 3.36 395 3.45  76 3.46 397 3.54 418 3.75
 368  0.334  0.624  0.596- 265 2.55 205 2.59 256 2.63 233 2.71  80 2.73 215 2.75 291 2.80 204 2.85
                           224 2.88 189 2.93 310 3.03 408 3.36 398 3.41 414 3.44 419 3.46 391 3.51
 369  0.326  0.374  0.593- 303 2.59 213 2.64 267 2.65 225 2.66 200 2.69  81 2.71 232 2.74 204 2.74
                           309 2.91 188 3.12 420 3.29  37 3.40 289 3.40 390 3.40 395 3.41 408 3.42
 370  0.670  0.374  0.594- 263 2.65 209 2.67 294 2.68  82 2.71 231 2.72 187 2.73 254 2.80 206 2.84
                           221 2.88 244 2.90 279 2.97 401 3.28 422 3.37 389 3.41 428 3.43  46 3.48
 371  0.664  0.122  0.613- 262 2.47 295 2.47 253 2.69 311 2.69 207 2.79 206 2.87 222 3.05 216 3.07
                           190 3.16 230 3.19 393 3.35  79 3.38 402 3.39 401 3.40 392 3.47 426 3.75
 372  0.334  0.879  0.603- 312 2.49 255 2.58 290 2.60 201 2.72 266 2.82 223 2.87 191 2.89 229 2.92
                           246 2.93 205 3.11  78 3.13 394 3.32 396 3.33 398 3.47 391 3.48 424 3.55
 373  0.159  0.627  0.602- 305 2.51 298 2.54 265 2.55 212 2.76 194 2.78 214 2.80 236 2.83 215 2.90
                           278 3.06 310 3.12 224 3.19 405 3.33 404 3.37 413 3.42 390 3.50 391 3.54
 374  0.166  0.873  0.618- 312 2.46 313 2.47 304 2.48 212 2.83 210 2.91 266 2.94 235 3.17 223 3.18
                           192 3.28 246 3.32 391 3.42 405 3.43 394 3.44 406 3.44 412 3.89 366 3.96
 375  0.502  0.372  0.595- 303 2.53 263 2.57 244 2.62 248 2.65 232 2.66 221 2.79 270 2.84 279 2.84
                           188 2.87 289 2.93 247 2.99 392 3.33 428 3.38 397 3.46 415 3.48 408 3.52
 376  0.499  0.120  0.606- 288 2.52 262 2.52 302 2.63 311 2.69 249 2.73 234 2.91 222 2.95 216 2.96
                           248 3.00 193 3.11 197 3.20 393 3.32 396 3.33 392 3.39 397 3.56 426 3.64
 377  0.168  0.122  0.622- 299 2.49 268 2.50 301 2.50 252 2.55 210 2.90 211 2.96 226 3.26 238 3.28
                           184 3.34 196 3.36 395 3.40 394 3.43 406 3.45 403 3.47 367 3.88 315 3.93
 378  0.163  0.372  0.608- 300 2.50 296 2.51 267 2.59 309 2.62 211 2.78 237 2.88 214 2.99 213 3.03
                           225 3.05 195 3.08 277 3.31 403 3.33 390 3.41 395 3.46 404 3.48 421 3.61
 379  0.665  0.881  0.607- 282 2.51 251 2.53 293 2.59 257 2.64 207 2.71 220 2.92 185 2.92 241 2.97
                           208 3.14 227 3.14 297 3.23 393 3.31 402 3.35 388 3.50 400 3.55 431 3.60
 380  0.666  0.627  0.593- 208 2.58 264 2.63 186 2.65 292 2.68  90 2.72 280 2.76 245 2.82 219 2.83
                           228 2.86 209 2.98 250 3.19 389 3.32 388 3.37 427 3.40 432 3.40  15 3.42
 381  0.001  0.375  0.624- 260 2.49 296 2.50 300 2.51 306 2.54 198 2.90 203 2.96 237 3.37 195 3.37
                           243 3.38 409 3.42 153 3.42 404 3.44 457 3.46 403 3.52 378 3.88 363 3.93
 382  1.000  0.622  0.644- 307 2.45 305 2.45 259 2.46 298 2.46 198 3.13 199 3.33 457 3.54 404 3.55
                           405 3.65 407 3.68 365 3.96 373 3.97 317 4.93 336 5.02
 383  0.834  0.125  0.616- 295 2.49 258 2.50 281 2.54 284 2.79 253 2.80 286 2.84 459 2.93 190 3.04
                           182 3.17 242 3.18 230 3.27 402 3.41 387 3.42 276 3.53 409 3.53 401 3.57
 384  0.500  0.876  0.610- 282 2.49 255 2.52 290 2.69 287 2.72 249 2.81 257 2.81 220 3.03 191 3.08
                           241 3.08 229 3.11 271 3.27 393 3.38 396 3.39 388 3.46 398 3.48 431 3.69
 385  0.000  0.125  0.407-  72 2.76  62 2.78 116 2.79  95 2.79 112 2.79 161 2.79 162 2.79 163 2.79
                            85 2.79  66 2.80 140 2.81 455 3.42 456 3.42 436 3.42 437 3.42 430 3.57
 386  0.504  0.625  0.594- 256 2.55 280 2.61 233 2.65 245 2.66 219 2.69 247 2.73 189 2.76 272 2.82
                           264 2.85 287 2.93 427 3.37 388 3.38 389 3.44 414 3.46 291 3.47 398 3.48
 387  0.916  1.000  0.604- 308 1.80 258 1.80 202 2.00 286 2.02 239 2.20 182 2.21 315 3.42 383 3.42
                           364 3.44 366 3.45 332 3.51 338 3.52
 388  0.584  0.750  0.599- 280 1.87 257 1.94 208 1.96 287 1.99 220 2.06 245 2.12 380 3.37 386 3.38
                           384 3.46 331 3.48 325 3.49 379 3.50
 389  0.591  0.501  0.594- 209 1.82 219 1.89 244 1.96 264 1.97 279 2.11 247 2.24  11 3.13 380 3.32
                           323 3.35 370 3.41 386 3.44 333 3.51 375 3.57
 390  0.242  0.498  0.594- 214 1.83 309 1.90 213 1.94 265 1.99 224 2.04 204 2.16 328 3.33 369 3.40
                           378 3.41 318 3.49 373 3.50 368 3.56
 391  0.249  0.752  0.592- 223 1.82 212 1.86 215 1.96 266 1.96 205 2.06 330 3.34 321 3.37 374 3.42
                           372 3.48 368 3.51 373 3.54
 392  0.578  0.247  0.597- 248 1.88 311 1.89 263 1.95 216 1.97 206 2.06 221 2.12 375 3.33 376 3.39
                           334 3.40 371 3.47 324 3.54 370 3.58
 393  0.582  0.000  0.604- 262 1.79 282 1.79 249 2.00 207 2.01 222 2.23 241 2.24 379 3.31 376 3.32
                           371 3.35 384 3.38 329 3.54 322 3.56
 394  0.250  0.997  0.604- 268 1.79 312 1.81 210 1.98 201 2.03 246 2.22 226 2.25 372 3.32 367 3.36
                           377 3.43 374 3.44 326 3.54 320 3.56
 395  0.249  0.246  0.604- 252 1.74 211 1.92 267 1.94 200 2.07 184 2.13 225 2.31 377 3.40 369 3.41
                           367 3.45 378 3.46 327 3.52 319 3.60
 396  0.417  1.000  0.605- 255 1.79 288 1.80 201 2.00 249 2.00 191 2.25 234 2.27 376 3.33 372 3.33
                           367 3.36 384 3.39 320 3.57 329 3.57
 397  0.413  0.249  0.591- 193 1.85 200 1.85 232 1.95 302 1.99 248 2.06 289 2.31 319 3.31 334 3.40
                           375 3.46 369 3.47 367 3.54 376 3.56
 398  0.416  0.750  0.595- 205 1.92 290 1.95 229 1.96 189 2.00 287 2.02 256 2.03 331 3.38 321 3.40
                           368 3.41 372 3.47 386 3.48 384 3.48
 399  0.756  0.503  0.596- 285 1.83 292 1.92 228 1.98 254 1.98 187 2.06 209 2.13 349 3.36 365 3.42
                           363 3.46 380 3.50 323 3.53 370 3.53
 400  0.752  0.753  0.591- 227 1.84 283 1.86 186 1.97 293 1.98 208 2.04 250 2.40  28 3.14 362 3.31
                           325 3.35 364 3.45 380 3.46 365 3.53 379 3.55
 401  0.741  0.248  0.593- 206 1.83 190 1.91 231 1.95 253 2.02 294 2.03 284 2.15   3 3.04 370 3.28
                           324 3.30 371 3.40 335 3.46 383 3.57 363 3.62
 402  0.750  0.002  0.604- 295 1.80 251 1.80 286 1.99 207 2.02 230 2.22 185 2.26 379 3.35 371 3.39
                           383 3.41 364 3.45 332 3.55 322 3.56
 403  0.085  0.248  0.604- 301 1.79 296 1.80 203 1.99 211 2.00 196 2.20 237 2.25 378 3.33 377 3.47
                           315 3.48 327 3.51 381 3.52 337 3.57
 404  0.081  0.501  0.603- 300 1.80 298 1.80 198 1.95 214 2.05 236 2.22 195 2.23 373 3.37 381 3.44
                           317 3.47 378 3.48 382 3.55 328 3.60
 405  0.080  0.751  0.603- 313 1.79 305 1.80 199 1.94 212 2.16 235 2.18 194 2.21 373 3.33 366 3.41
                           374 3.43 336 3.47 330 3.60 382 3.65
 406  0.084  0.998  0.604- 304 1.80 299 1.80 202 2.01 210 2.01 192 2.18 238 2.22 315 3.40 374 3.44
                           377 3.45 366 3.45 326 3.51 338 3.52
 407  0.918  0.751  0.603- 261 1.79 307 1.80 199 1.96 283 2.10 217 2.18 240 2.23 365 3.33 366 3.40
                           364 3.47 336 3.49 362 3.59 382 3.68
 408  0.412  0.497  0.593- 204 1.85 188 1.88 233 1.90 303 2.07 247 2.10 291 2.16 318 3.35 368 3.36
                           369 3.42 333 3.50 375 3.52 386 3.59
 409  0.925  0.248  0.602- 281 1.80 260 1.81 203 1.87 242 2.14 153 2.19 284 2.21 315 3.41 337 3.41
                           381 3.42 363 3.49 383 3.53 335 3.65
 410  0.918  0.626  0.506- 218 1.84 240 1.84  75 1.94 273 2.05  83 2.10  64 2.11 317 3.39 336 3.39
                           349 3.42 362 3.43 365 3.44 340 3.55 316 3.59
 411  0.917  0.876  0.507- 217 1.84 239 1.84  77 1.97 274 2.01  70 2.11  63 2.12 362 3.37 336 3.40
                           338 3.41 332 3.41 341 3.58 339 3.59 364 3.91 366 3.96
 412  0.083  0.875  0.507- 192 1.84 235 1.85  77 1.97 183 2.03  60 2.11 143 2.11 330 3.37 336 3.40
                           338 3.41 326 3.44 341 3.57 353 3.59 374 3.89 366 3.98
 413  0.081  0.626  0.506- 236 1.84 194 1.85  75 1.93 278 2.07  59 2.09 142 2.11 336 3.39 317 3.40
                           373 3.42 328 3.43 330 3.43 340 3.53 352 3.60
 414  0.417  0.626  0.501-  57 1.91  80 1.92 189 1.95 146 1.97 272 1.98 233 2.13 321 3.41 368 3.44
                           356 3.44 344 3.45 333 3.45 331 3.46 386 3.46 318 3.48
 415  0.416  0.374  0.501- 145 1.91  81 1.93  58 1.96 232 1.98 270 1.99 188 2.06 343 3.43 318 3.44
                           355 3.45 333 3.45 334 3.46 319 3.48 375 3.48 369 3.49
 416  0.416  0.122  0.503- 234 1.84  76 1.95 144 1.96 197 1.99 193 2.04  68 2.07 320 3.33 329 3.39
                           334 3.45 342 3.47 319 3.47 354 3.50 376 3.68 367 3.88
 417  0.751  0.879  0.503- 185 1.83 274 1.95  52 1.95 297 2.00 227 2.03 151 2.09 332 3.36 322 3.37
                           325 3.48 362 3.48 339 3.48 350 3.50 379 3.72 364 3.96
 418  0.249  0.124  0.507- 226 1.84 184 1.87 181 1.95  76 2.02 152 2.11  51 2.13 319 3.35 326 3.38
                           327 3.39 320 3.40 360 3.57 342 3.60 367 3.75 377 3.94
 419  0.248  0.624  0.503- 278 1.89 224 1.92 215 1.98  69 1.99 155 1.99  80 2.08 318 3.42 328 3.42
                           330 3.45 352 3.46 368 3.46 321 3.48 344 3.52 373 3.64
 420  0.246  0.373  0.503- 225 1.85 277 1.89 154 1.97 213 1.98  65 2.07  81 2.09 369 3.29 327 3.37
                           319 3.41 351 3.44 328 3.45 318 3.46 343 3.53 378 3.72
 421  0.082  0.375  0.506- 237 1.83 195 1.84  74 1.96 277 2.03 141 2.10  61 2.12 337 3.38 328 3.40
                           317 3.42 327 3.46 361 3.55 351 3.59 378 3.61 381 4.01
 422  0.752  0.376  0.502- 275 1.90 187 1.92  54 1.98 149 1.99 231 2.01  82 2.04 370 3.37 323 3.41
                           349 3.41 335 3.44 359 3.45 347 3.51 324 3.51 363 3.61
 423  0.751  0.122  0.505- 230 1.83 276 1.96 190 1.97  79 1.99 148 2.01  55 2.10 332 3.37 322 3.38
                           335 3.43 324 3.47 358 3.52 346 3.54 371 3.85 383 3.88
 424  0.417  0.877  0.504- 191 1.85 229 1.96  78 1.97 271 1.98  56 2.00 147 2.09 329 3.38 320 3.41
                           331 3.41 321 3.42 345 3.51 357 3.52 372 3.55 384 3.74
 425  0.249  0.879  0.502- 246 1.83 183 1.93  89 1.94  78 2.00 156 2.07 223 2.08 326 3.37 320 3.38
                           353 3.47 330 3.48 321 3.49 345 3.49 372 3.63 374 4.00
 426  0.583  0.123  0.505- 222 1.84 216 1.94  79 1.98 197 1.99  92 2.02  71 2.09 322 3.37 324 3.40
                           329 3.40 334 3.40 346 3.53 354 3.54 376 3.64 371 3.75
 427  0.584  0.627  0.501-  87 1.91 245 1.92  90 1.93 272 1.98  91 1.99 219 2.09 386 3.37 325 3.39
                           380 3.40 331 3.42 348 3.43 356 3.44 333 3.45 323 3.48
 428  0.583  0.373  0.503- 221 1.89 158 1.96  82 1.96 270 1.98  88 2.02 244 2.04 375 3.38 324 3.39
                           334 3.42 333 3.43 370 3.43 323 3.47 347 3.48 355 3.48
 429  0.918  0.374  0.506- 243 1.85 153 1.86  74 1.94 275 2.03  67 2.08  84 2.11 337 3.40 317 3.42
                           349 3.42 335 3.43 363 3.47 361 3.54 359 3.58
 430  0.917  0.125  0.507- 182 1.85 242 1.86  72 1.97 276 2.01  85 2.10  66 2.11 335 3.38 337 3.41
                           338 3.41 332 3.41 385 3.57 358 3.59 383 3.84 315 3.95
 431  0.584  0.876  0.506- 241 1.84 220 1.91 297 1.97 271 1.99  86 2.06  73 2.10 331 3.38 325 3.38
                           322 3.39 329 3.39 350 3.55 357 3.56 379 3.60 384 3.69
 432  0.752  0.624  0.503- 273 1.90 228 1.96 186 1.96  53 1.98 150 1.99  90 2.06 380 3.40 349 3.41
                           323 3.42 316 3.45 362 3.46 325 3.51 348 3.51 365 3.67
[...]
  273            m_sumb_d                              0.362099                       42   5
  274          m_sumb_d                              0.000634                          7   4
  275        setdij_                               5.044790                          140   3
  276          m_sumb_d                              1.173432                        140   4
  277        set_dd_magatom                        0.000021                            7   3
  278        set_dd_paw                            0.085351                            7   3
  279          set_rsgf_all                          0.000011                          7   4
  280          m_sumb_d                              0.083206                         49   4
  281        strkin                                0.046888                            7   3
  282          m_sumb_d                              0.006766                          7   4
  283        strelo                                0.052408                            7   3
  284          m_sumb_d                              0.008775                         14   4
  285        strnlr                               67.187945                            7   3
  286          rspher_all                            2.280077                         63   4
  287          phaser                                0.000039                         63   4
  288          rpro_isp                             64.321234                         63   4
  289            fftwav_mpi                           53.550228                     8820   5
  290              fft3d_mpi                            46.000243                   8820   6
  291                fftbrc_mpi                           35.630548                 8820   7
  292                  fftbas_plan_mpi                      35.602048               8820   8
  293                    dfftw_execute                        16.898950            26460   9
  294                    map_forward                          13.012000            17640   9
  295                      map_gather                            0.995659           8820  10
  296                      m_alltoallv_z                         4.818639           8820  10
  297                      map_scatter                           2.447911           8820  10
  298            rpromu                               10.666310                     2205   5
  299              rpromu_gemm                           3.307192                 498330   6
  300              m_sumb_d                              1.458284                   8820   6
  301          m_sumb_d                              0.441481                          7   4
  302        m_sumb_d                              0.044260                           49   3
  303        fft3d_mpi                             4.530082                          497   3
  304          fftbrc_mpi                            4.311627                        497   4
  305            fftbas_plan_mpi                       4.309776                      497   5
  306              dfftw_execute                         0.635040                   1491   6
  307              map_forward                           1.743305                    490   6
  308                map_gather                            0.032303                  245   7
  309                m_alltoallv_z                         1.432229                  245   7
  310                map_scatter                           0.273898                  245   7
  311              map_backward                          1.572382                    504   6
  312                map_gather                            0.180957                  252   7
  313                m_alltoallv_z                         1.319229                  252   7
  314                map_scatter                           0.067121                  252   7
  315        ggaall_grid                           1.314031                            7   3
  316        forhar                                2.816009                            7   3
  317          m_sumb_d                              0.052652                          7   4
  318        strehar                               0.050407                            7   3
  319          m_sumb_d                              0.008536                          7   4
  320        m_bcast_d                             0.005804                           14   3
  321      potlok                               72.618714                             13   2
  322        fft3d_mpi                            26.659640                         2741   3
  323          fftbrc_mpi                           25.605628                       2741   4
  324            fftbas_plan_mpi                      25.596498                     2741   5
  325              dfftw_execute                         3.564108                   8223   6
  326              map_forward                          10.066411                   2754   6
  327                map_gather                            0.215755                 1390   7
  328                m_alltoallv_z                         8.272702                 1390   7
  329                map_scatter                           1.549631                 1390   7
  330              map_backward                          9.998816                   2728   6
  331                map_gather                            1.034204                 1364   7
  332                m_alltoallv_z                         8.574699                 1364   7
  333                map_scatter                           0.363125                 1364   7
  334        ggaall_grid                          18.838848                          237   3
  335        m_sumb_d                              0.468740                         1224   3
  336        fewald                                0.018212                           26   3
  337          rsp                                   0.016725                         26   4
  338          rcp                                   0.001249                         26   4
  339        pothar                                0.023788                           13   3
  340          m_sumb_d                              0.016421                         13   4
  341        m_bcast_d                             0.052242                           13   3
  342      potlok_metagga                        0.000069                             13   2
  343      set_dd_magatom                        0.000005                              7   2
  344      set_dd_paw                            0.160397                             13   2
  345        set_rsgf_all                          0.000023                           13   3
  346        m_sumb_d                              0.156553                           91   3
  347      m_sumb_d                             51.467805                           3518   2
  348      wavpre_noio                           1.630097                              6   2
  349        stufak                                1.549653                            6   3
  350      eddiag                              191.854422                              6   2
  351        overl                                 0.007824                            6   3
  352        redis_proj                            0.618871                           18   3
  353          m_alltoall_d                          0.611982                       2520   4
  354        fftwav_mpi                            5.753568                          840   3
  355          fft3d_mpi                             4.847220                        840   4
  356            fftbrc_mpi                            3.500824                      840   5
  357              fftbas_plan_mpi                       3.498106                    840   6
  358                dfftw_execute                         1.618832                 2520   7
  359                map_forward                           1.385562                 1680   7
  360                  map_gather                            0.136475                840   8
  361                  m_alltoallv_z                         0.440629                840   8
  362                  map_scatter                           0.244401                840   8
  363        hamilt_local                          4.033259                          840   3
  364          vhamil                                1.125551                        840   4
  365          kinhamil                              2.899846                        840   4
  366            fftext_mpi                            2.848926                      840   5
  367              fft3d_mpi                             2.767537                    840   6
  368                fftbrc_mpi                            2.306573                  840   7
  369                  fftbas_plan_mpi                       2.303712                840   8
  370                    dfftw_execute                         1.161611             2520   9
  371                    map_backward                          0.661462             1680   9
  372                      map_gather                            0.134656            840  10
  373                      m_alltoallv_z                         0.396831            840  10
  374                      map_scatter                           0.116617            840  10
  375        redis_pw                              1.553949                          846   3
  376          m_alltoall_d                          1.492326                       2520   4
  377        orth1                                 2.219044                          420   3
  378        m_sumb_d                              1.209968                            6   3
  379        shift_bands_between_low_high          0.000006                            6   3
  380        lincom                                1.775073                            6   3
 
 Flat profile
 ============
 
             routine name                   CPU           calls
 ---------------------------------------------------------------
 edwav                                5534.386441         350
 potlok                                651.085282         363
 total_time                            477.152657           1
 dfftw_execute                         353.190295      630480
 eddiag                                346.841358         188
 m_sumb_d                              298.746536      361385
 m_alltoall_d                          289.625273      848820
 lincom                                287.615391        1070
 m_alltoallv_z                         267.757848      210880
 orth1                                 243.145953       50400
 fft3d_mpi                             198.648776      210160
 fftbas_plan_mpi                       134.990066      210160
 fftwav_mpi                            123.875209      129829
 choleski                              120.943473         357
 eccp                                  101.238734       98000
 ggaall_grid                            85.876535         594
 map_forward                            79.730299      288820
 map_scatter                            63.466066      210880
 racc0                                  48.829458       24500
 pw_charge                              46.402038       41769
 map_gather                             39.827438      210880
 rpro1                                  38.526419       24500
 vhamil                                 35.752192       26320
 w1_dscal                               24.662169       24500
 setdij_                                15.362509         546
 m_bcast_z                              12.717725        2381
 force_and_stress                       12.621279           7
 augmentation_charge                    11.355506         357
 orthch                                 10.083079         357
 rpromu                                  8.528790        3185
 redis_pw                                5.412349      100722
 rpromu_gemm                             4.756672      719810
 fftext_mpi                              3.910730       50820
 rspher_all                              3.256006          92
 forloc                                  2.765983           7
 forhar                                  2.763357           7
 redis_proj                              2.503057       77410
 stufak                                  1.810735           7
 elmin_all                               1.666697           7
 overl                                   1.556095       25220
 m_bcast_d                               1.543141         393
 soft_charge                             1.262878         357
 kinhamil                                1.138893       26320
 map_backward                            1.128520      131500
 fftbrc_mpi                              0.671263      210160
 densta                                  0.668793         358
 rsp                                     0.527647         733
 depsum                                  0.401274         357
 hamilt_local                            0.238389       26320
 pothar                                  0.207861         363
 set_charge                              0.174718         357
 rpro_isp                                0.171120          91
 set_dd_paw                              0.169341         370
 strnlr                                  0.145115           7
 fft_gq                                  0.091022         357
 fewald                                  0.087437         733
 wavpre_noio                             0.080444           6
 strelo                                  0.043633           7
 strehar                                 0.041871           7
 strkin                                  0.040122           7
 rcp                                     0.039781         733
 fornlr                                  0.039557           7
 redis_pw_all                            0.004106         350
 fordep                                  0.001992           7
 redis_pw_over_bands                     0.001322         363
 potlok_metagga                          0.001235         363
 brgrid                                  0.000838           1
 set_rsgf_all                            0.000742         370
 crpa_reader                             0.000283           1
 phaser                                  0.000198         266
 rotate_active_occupied_orbital          0.000085           7
 proall                                  0.000083           7
 vectorpot                               0.000027           1
 set_dd_magatom                          0.000026          14
 shift_bands_between_low_high            0.000019          13
 ---------------------------------------------------------------
  summed up times    10002.3102507591     
 
 Accumulative profile
 ====================
 
             routine name                   CPU           calls
 ---------------------------------------------------------------
 total_time                           9997.786147           1
 elmin_all                            9044.908826           7
 edwav                                7411.132417         350
 fft3d_mpi                            1134.886466      210160
 potlok                               1003.785315         363
 fftbrc_mpi                            936.237690      210160
 fftbas_plan_mpi                       935.566427      210160
 fftwav_mpi                            816.143135      129829
 eddiag                                562.636078         188
 orthch                                423.598305         357
 dfftw_execute                         353.190295      630480
 set_charge                            315.626640         357
 map_forward                           314.060901      288820
 m_sumb_d                              298.746536      361385
 soft_charge                           298.006761         357
 m_alltoall_d                          289.625273      848820
 lincom                                287.615391        1070
 m_alltoallv_z                         267.757848      210880
 orth1                                 243.145953       50400
 fftext_mpi                            173.389400       50820
 redis_pw                              166.666426      100722
 map_backward                          137.849269      131500
 redis_proj                            130.874252       77410
 hamilt_local                          126.341032       26320
 choleski                              120.943473         357
 force_and_stress                      120.556379           7
 eccp                                  107.844358       98000
 rpro_isp                               92.859667          91
 kinhamil                               90.350450       26320
 ggaall_grid                            85.876535         594
 strnlr                                 67.187945           7
 map_scatter                            63.466066      210880
 racc0                                  61.664443       24500
 pw_charge                              46.402038       41769
 rpro1                                  44.244881       24500
 map_gather                             39.827438      210880
 vhamil                                 35.752192       26320
 w1_dscal                               24.662169       24500
 fornlr                                 22.448951           7
 redis_pw_over_bands                    22.366529         363
 redis_pw_all                           22.365207         350
 setdij_                                20.409893         546
 augmentation_charge                    16.658538         357
 rpromu                                 15.360340        3185
 m_bcast_z                              12.717725        2381
 proall                                  7.157873           7
 rpromu_gemm                             4.756672      719810
 set_dd_paw                              4.728488         370
 rspher_all                              3.256006          92
 forhar                                  2.816009           7
 forloc                                  2.784780           7
 densta                                  2.680079         358
 fft_gq                                  2.275230         357
 stufak                                  1.810735           7
 wavpre_noio                             1.630097           6
 overl                                   1.556095       25220
 m_bcast_d                               1.543141         393
 fordep                                  1.523373           7
 fewald                                  0.873945         733
 depsum                                  0.786624         357
 pothar                                  0.694877         363
 rsp                                     0.527647         733
 strelo                                  0.052408           7
 strehar                                 0.050407           7
 strkin                                  0.046888           7
 rcp                                     0.039781         733
 potlok_metagga                          0.001235         363
 brgrid                                  0.000838           1
 set_rsgf_all                            0.000742         370
 crpa_reader                             0.000283           1
 phaser                                  0.000198         266
 rotate_active_occupied_orbital          0.000085           7
 vectorpot                               0.000027           1
 set_dd_magatom                          0.000026          14
 shift_bands_between_low_high            0.000019          13
 ---------------------------------------------------------------
 
Profiling took   5.879031  1.960306  0.010939  0.010339 seconds
Profiling took   6.838727 seconds
