 vasp.6.3.2 27Jun22 (build Jan 03 2024 23:25:20) gamma-only                     
  
 executed on           IFC15_impi date 2024.06.05  04:56:32
 running  512 mpi-ranks, with    1 threads/rank
 distrk:  each k-point on  512 cores,    1 groups
 distr:  one band on NCORE=  32 cores,   16 groups


--------------------------------------------------------------------------------------------------------


 INCAR:
   ENCUT = 500.000000
   SIGMA = 0.010000
   EDIFF = 1.00e-05
   ALGO = A
   ISMEAR = 0
   NELM = 200
   NSW = 999
   NCORE = 32
   LCHARG = .TRUE.
   LWAVE = .TRUE.
   LREAL = Auto
   IBRION = 5
   POTIM = 0.015
   NFREE = 2
   ISYM = 0
   EDIFFG = -0.05
   GGA = BF
   LUSE_VDW = .TRUE.
   ZAB_VDW = -1.8867
   LBEEFENS = .TRUE.
   DIPOL = 0.5 0.5 0.65
   IDIPOL = 3
   LDIPOL = .TRUE.

 POTCAR:    PAW_PBE Au 04Oct2007                  
 POTCAR:    PAW_PBE O 08Apr2002                   
 POTCAR:    PAW_PBE Sr_sv 07Sep2000               
 POTCAR:    PAW_PBE Ti_sv 26Sep2005               
 POTCAR:    PAW_PBE H 15Jun2001                   
 -----------------------------------------------------------------------------
|                                                                             |
|               ----> ADVICE to this user running VASP <----                  |
|                                                                             |
|     You have switched on vdW-DFT.                                           |
|     This routine was written and supplied by Jiri Klimes. We recommend      |
|     that you carefully read and cite the following publications:            |
|       J. Klimes, D.R. Bowler, A. Michelides                                 |
|          J. Phys.: Cond Matt. 22 022201 (2010)                              |
|       J. Klimes, D.R. Bowler, A. Michelides                                 |
|          Phys. Rev. B. 83, 195131 (2011)                                    |
|     and references therein.                                                 |
|                                                                             |
 -----------------------------------------------------------------------------

 POTCAR:    PAW_PBE Au 04Oct2007                  
   SHA256 =  d0044ae04e2bdce24051b198fc5c053d722a5bc6fe3c3b100514a13fc5d2db88 Au/POTCAR             
   COPYR  = (c) Copyright 04Oct2007 Georg Kresse                                                    
   COPYR  = This file is part of the software VASP. Any use, copying, and all other rights are regul
   COPYR  = If you do not have a valid VASP license, you may not use, copy or distribute this file. 
   VRHFIN =Au: s1d10                                                                                
   LEXCH  = PE                                                                                      
   EATOM  =   926.0867 eV,   68.0654 Ry                                                             
                                                                                                    
   TITEL  = PAW_PBE Au 04Oct2007                                                                    
   LULTRA =        F    use ultrasoft PP ?                                                          
   IUNSCR =        1    unscreen: 0-lin 1-nonlin 2-no                                               
   RPACOR =    2.330    partial core radius                                                         
   POMASS =  196.966; ZVAL   =   11.000    mass and valenz                                          
   RCORE  =    2.500    outmost cutoff radius                                                       
   RWIGS  =    2.840; RWIGS  =    1.503    wigner-seitz radius (au A)                               
   ENMAX  =  229.943; ENMIN  =  172.457 eV                                                          
   ICORE  =        3    local potential                                                             
   LCOR   =        T    correct aug charges                                                         
   LPAW   =        T    paw PP                                                                      
   EAUG   =  356.670                                                                                
   DEXC   =    0.000                                                                                
   RMAX   =    2.562    core radius for proj-oper                                                   
   RAUG   =    1.300    factor for augmentation sphere                                              
   RDEP   =    2.598    radius for radial grids                                                     
   RDEPT  =    2.193    core radius for aug-charge                                                  
                                                                                                    
   Atomic configuration                                                                             
   16 entries                                                                                       
     n  l   j            E        occ.                                                              
     1  0  0.50    -80748.5001   2.0000                                                             
     2  0  0.50    -14244.7466   2.0000                                                             
     2  1  1.50    -12310.9591   6.0000                                                             
     3  0  0.50     -3362.1768   2.0000                                                             
     3  1  1.50     -2801.5463   6.0000                                                             
     3  2  2.50     -2203.8206  10.0000                                                             
     4  0  0.50      -729.8168   2.0000                                                             
     4  1  1.50      -546.0527   6.0000                                                             
     4  2  2.50      -325.7302  10.0000                                                             
     4  3  3.50       -81.1472  14.0000                                                             
     5  0  0.50      -108.3201   2.0000                                                             
     5  1  1.50       -59.7479   6.0000                                                             
     5  2  2.50        -6.8783  10.0000                                                             
     6  0  0.50        -5.7602   1.0000                                                             
     6  1  1.50        -6.8029   0.0000                                                             
     5  3  2.50        -1.3606   0.0000                                                             
   Description                                                                                      
     l       E           TYP  RCUT    TYP  RCUT                                                     
     2     -6.8782861     23  2.500                                                                 
     2     -8.2388687     23  2.500                                                                 
     0     -5.7601759     23  2.500                                                                 
     0     -0.8493231     23  2.500                                                                 
     1     -2.7211652     23  2.500                                                                 
     1     27.2116520     23  2.500                                                                 
     3     -1.3605826     23  2.500                                                                 
  local pseudopotential read in
  partial core-charges read in
  partial kinetic energy density read in
  atomic valenz-charges read in
  non local Contribution for L=           2  read in
    real space projection operators read in
  non local Contribution for L=           2  read in
    real space projection operators read in
  non local Contribution for L=           0  read in
    real space projection operators read in
  non local Contribution for L=           0  read in
    real space projection operators read in
  non local Contribution for L=           1  read in
    real space projection operators read in
  non local Contribution for L=           1  read in
    real space projection operators read in
    PAW grid and wavefunctions read in
 
   number of l-projection  operators is LMAX  =           6
   number of lm-projection operators is LMMAX =          18
 
 POTCAR:    PAW_PBE O 08Apr2002                   
   SHA256 =  818f92134a0a090dccd8ba1447fa70422a3b330e708bb4f08108d8ae51209ddf O/POTCAR              
   COPYR  = (c) Copyright 08Apr2002 Georg Kresse                                                    
   COPYR  = This file is part of the software VASP. Any use, copying, and all other rights are regul
   COPYR  = If you do not have a valid VASP license, you may not use, copy or distribute this file. 
   VRHFIN =O: s2p4                                                                                  
   LEXCH  = PE                                                                                      
   EATOM  =   432.3788 eV,   31.7789 Ry                                                             
                                                                                                    
   TITEL  = PAW_PBE O 08Apr2002                                                                     
   LULTRA =        F    use ultrasoft PP ?                                                          
   IUNSCR =        1    unscreen: 0-lin 1-nonlin 2-no                                               
   RPACOR =    1.200    partial core radius                                                         
   POMASS =   16.000; ZVAL   =    6.000    mass and valenz                                          
   RCORE  =    1.520    outmost cutoff radius                                                       
   RWIGS  =    1.550; RWIGS  =    0.820    wigner-seitz radius (au A)                               
   ENMAX  =  400.000; ENMIN  =  300.000 eV                                                          
   ICORE  =        2    local potential                                                             
   LCOR   =        T    correct aug charges                                                         
   LPAW   =        T    paw PP                                                                      
   EAUG   =  605.392                                                                                
   DEXC   =    0.000                                                                                
   RMAX   =    1.553    core radius for proj-oper                                                   
   RAUG   =    1.300    factor for augmentation sphere                                              
   RDEP   =    1.550    radius for radial grids                                                     
   RDEPT  =    1.329    core radius for aug-charge                                                  
                                                                                                    
   Atomic configuration                                                                             
    4 entries                                                                                       
     n  l   j            E        occ.                                                              
     1  0  0.50      -514.6923   2.0000                                                             
     2  0  0.50       -23.9615   2.0000                                                             
     2  1  0.50        -9.0305   4.0000                                                             
     3  2  1.50        -9.5241   0.0000                                                             
   Description                                                                                      
     l       E           TYP  RCUT    TYP  RCUT                                                     
     0    -23.9615318     23  1.200                                                                 
     0     -9.5240782     23  1.200                                                                 
     1     -9.0304911     23  1.520                                                                 
     1      8.1634956     23  1.520                                                                 
     2     -9.5240782      7  1.500                                                                 
  local pseudopotential read in
  partial core-charges read in
  partial kinetic energy density read in
  kinetic energy density of atom read in
  atomic valenz-charges read in
  non local Contribution for L=           0  read in
    real space projection operators read in
  non local Contribution for L=           0  read in
    real space projection operators read in
  non local Contribution for L=           1  read in
    real space projection operators read in
  non local Contribution for L=           1  read in
    real space projection operators read in
    PAW grid and wavefunctions read in
 
   number of l-projection  operators is LMAX  =           4
   number of lm-projection operators is LMMAX =           8
 
 POTCAR:    PAW_PBE Sr_sv 07Sep2000               
   SHA256 =  a8389d3481648516ee67182ee030b298d280b37e29cbbf2d8595f040d757c710 Sr_sv/POTCAR          
   COPYR  = (c) Copyright 07Sep2000 Georg Kresse                                                    
   COPYR  = This file is part of the software VASP. Any use, copying, and all other rights are regul
   COPYR  = If you do not have a valid VASP license, you may not use, copy or distribute this file. 
   VRHFIN =Sr: 4s4p5s                                                                               
   LEXCH  = PE                                                                                      
   EATOM  =   843.0319 eV,   61.9611 Ry                                                             
                                                                                                    
   TITEL  = PAW_PBE Sr_sv 07Sep2000                                                                 
   LULTRA =        F    use ultrasoft PP ?                                                          
   IUNSCR =        1    unscreen: 0-lin 1-nonlin 2-no                                               
   RPACOR =    2.200    partial core radius                                                         
   POMASS =   87.620; ZVAL   =   10.000    mass and valenz                                          
   RCORE  =    2.500    outmost cutoff radius                                                       
   RWIGS  =    4.040; RWIGS  =    2.138    wigner-seitz radius (au A)                               
   ENMAX  =  229.353; ENMIN  =  172.014 eV                                                          
   RCLOC  =    2.201    cutoff for local pot                                                        
   LCOR   =        T    correct aug charges                                                         
   LPAW   =        T    paw PP                                                                      
   EAUG   =  366.804                                                                                
   DEXC   =    0.000                                                                                
   RMAX   =    2.547    core radius for proj-oper                                                   
   RAUG   =    1.300    factor for augmentation sphere                                              
   RDEP   =    2.562    radius for radial grids                                                     
   RDEPT  =    2.128    core radius for aug-charge                                                  
                                                                                                    
   Atomic configuration                                                                             
   10 entries                                                                                       
     n  l   j            E        occ.                                                              
     1  0  0.50    -15934.8930   2.0000                                                             
     2  0  0.50     -2157.6250   2.0000                                                             
     2  1  1.50     -1917.0034   6.0000                                                             
     3  0  0.50      -333.7288   2.0000                                                             
     3  1  1.50      -256.0992   6.0000                                                             
     3  2  2.50      -127.9971  10.0000                                                             
     4  0  0.50       -40.8953   2.0000                                                             
     5  0  0.50        -3.5257   1.9990                                                             
     4  1  1.50       -22.8179   6.0000                                                             
     4  2  1.50        -1.2815   0.0010                                                             
   Description                                                                                      
     l       E           TYP  RCUT    TYP  RCUT                                                     
     0    -40.8953213     23  2.480                                                                 
     0     -3.5257161     23  2.480                                                                 
     1    -22.8178632     23  2.500                                                                 
     1    -24.1784458     23  2.500                                                                 
     2     -1.2814598     23  2.500                                                                 
     2      0.2279365     23  2.500                                                                 
  local pseudopotential read in
  partial core-charges read in
  partial kinetic energy density read in
  atomic valenz-charges read in
  non local Contribution for L=           0  read in
    real space projection operators read in
  non local Contribution for L=           0  read in
    real space projection operators read in
  non local Contribution for L=           1  read in
    real space projection operators read in
  non local Contribution for L=           1  read in
    real space projection operators read in
  non local Contribution for L=           2  read in
    real space projection operators read in
  non local Contribution for L=           2  read in
    real space projection operators read in
    PAW grid and wavefunctions read in
 
   number of l-projection  operators is LMAX  =           6
   number of lm-projection operators is LMMAX =          18
 
 POTCAR:    PAW_PBE Ti_sv 26Sep2005               
   SHA256 =  4d747badb5a5ea28d858fbac70885b3f8929d6fd9e5b0dbe1ecb9878dc164da1 Ti_sv/POTCAR          
   COPYR  = (c) Copyright 26Sep2005 Georg Kresse                                                    
   COPYR  = This file is part of the software VASP. Any use, copying, and all other rights are regul
   COPYR  = If you do not have a valid VASP license, you may not use, copy or distribute this file. 
   VRHFIN =Ti: 3p4s3d                                                                               
   LEXCH  = PE                                                                                      
   EATOM  =  1588.0892 eV,  116.7213 Ry                                                             
                                                                                                    
   TITEL  = PAW_PBE Ti_sv 26Sep2005                                                                 
   LULTRA =        F    use ultrasoft PP ?                                                          
   IUNSCR =        1    unscreen: 0-lin 1-nonlin 2-no                                               
   RPACOR =    2.000    partial core radius                                                         
   POMASS =   47.880; ZVAL   =   12.000    mass and valenz                                          
   RCORE  =    2.300    outmost cutoff radius                                                       
   RWIGS  =    2.300; RWIGS  =    1.217    wigner-seitz radius (au A)                               
   ENMAX  =  274.610; ENMIN  =  205.957 eV                                                          
   ICORE  =        3    local potential                                                             
   LCOR   =        T    correct aug charges                                                         
   LPAW   =        T    paw PP                                                                      
   EAUG   =  482.848                                                                                
   RMAX   =    2.348    core radius for proj-oper                                                   
   RAUG   =    1.300    factor for augmentation sphere                                              
   RDEP   =    2.381    radius for radial grids                                                     
   RDEPT  =    1.930    core radius for aug-charge                                                  
                                                                                                    
   Atomic configuration                                                                             
    8 entries                                                                                       
     n  l   j            E        occ.                                                              
     1  0  0.50     -4865.3608   2.0000                                                             
     2  0  0.50      -533.1368   2.0000                                                             
     2  1  1.50      -440.5031   6.0000                                                             
     3  0  0.50       -59.3186   2.0000                                                             
     4  0  0.50        -3.7291   1.0000                                                             
     3  1  1.50       -35.7012   6.0000                                                             
     3  2  2.50        -1.9157   3.0000                                                             
     4  3  2.50        -1.3606   0.0000                                                             
   Description                                                                                      
     l       E           TYP  RCUT    TYP  RCUT                                                     
     0    -59.3185931     23  1.800                                                                 
     0     -3.7290822     23  2.300                                                                 
     1    -35.7012045     23  2.300                                                                 
     1     -1.3605826     23  2.300                                                                 
     2     -1.9156920     23  2.300                                                                 
     2     -0.0236318     23  2.300                                                                 
     3     -1.3605826     23  2.300                                                                 
  local pseudopotential read in
  partial core-charges read in
  partial kinetic energy density read in
  atomic valenz-charges read in
  non local Contribution for L=           0  read in
    real space projection operators read in
  non local Contribution for L=           0  read in
    real space projection operators read in
  non local Contribution for L=           1  read in
    real space projection operators read in
  non local Contribution for L=           1  read in
    real space projection operators read in
  non local Contribution for L=           2  read in
    real space projection operators read in
  non local Contribution for L=           2  read in
    real space projection operators read in
    PAW grid and wavefunctions read in
 
   number of l-projection  operators is LMAX  =           6
   number of lm-projection operators is LMMAX =          18
 
 POTCAR:    PAW_PBE H 15Jun2001                   
   SHA256 =  030f79b5d3ab3cf0e668861823c8fb652ff669f3e15e46930bd03bfd63a607b6 H/POTCAR              
   COPYR  = (c) Copyright 15Jun2001 Georg Kresse                                                    
   COPYR  = This file is part of the software VASP. Any use, copying, and all other rights are regul
   COPYR  = If you do not have a valid VASP license, you may not use, copy or distribute this file. 
   VRHFIN =H: ultrasoft test                                                                        
   LEXCH  = PE                                                                                      
   EATOM  =    12.4884 eV,    0.9179 Ry                                                             
                                                                                                    
   TITEL  = PAW_PBE H 15Jun2001                                                                     
   LULTRA =        F    use ultrasoft PP ?                                                          
   IUNSCR =        0    unscreen: 0-lin 1-nonlin 2-no                                               
   RPACOR =    0.000    partial core radius                                                         
   POMASS =    1.000; ZVAL   =    1.000    mass and valenz                                          
   RCORE  =    1.100    outmost cutoff radius                                                       
   RWIGS  =    0.700; RWIGS  =    0.370    wigner-seitz radius (au A)                               
   ENMAX  =  250.000; ENMIN  =  200.000 eV                                                          
   RCLOC  =    0.701    cutoff for local pot                                                        
   LCOR   =        T    correct aug charges                                                         
   LPAW   =        T    paw PP                                                                      
   EAUG   =  400.000                                                                                
   RMAX   =    1.123    core radius for proj-oper                                                   
   RAUG   =    1.200    factor for augmentation sphere                                              
   RDEP   =    1.112    radius for radial grids                                                     
   RDEPT  =    0.926    core radius for aug-charge                                                  
                                                                                                    
   Atomic configuration                                                                             
    2 entries                                                                                       
     n  l   j            E        occ.                                                              
     1  0  0.50        -6.4927   1.0000                                                             
     2  1  0.50        -3.4015   0.0000                                                             
   Description                                                                                      
     l       E           TYP  RCUT    TYP  RCUT                                                     
     0     -6.4927494     23  1.100                                                                 
     0      6.8029130     23  1.100                                                                 
     1     -4.0817478     23  1.100                                                                 
  local pseudopotential read in
  atomic valenz-charges read in
  non local Contribution for L=           0  read in
    real space projection operators read in
  non local Contribution for L=           0  read in
    real space projection operators read in
  non local Contribution for L=           1  read in
    real space projection operators read in
    PAW grid and wavefunctions read in
 
   number of l-projection  operators is LMAX  =           3
   number of lm-projection operators is LMMAX =           5
 
 Optimization of the real space projectors (new method)

 maximal supplied QI-value         = 15.12
 optimisation between [QCUT,QGAM] = [ 11.34, 22.83] = [ 36.00,145.93] Ry 
 Optimized for a Real-space Cutoff    1.39 Angstroem

   l    n(q)    QCUT    max X(q) W(low)/X(q) W(high)/X(q)  e(spline) 
   2      9    11.338    60.898    0.39E-03    0.42E-03    0.21E-06
   2      9    11.338    58.894    0.40E-03    0.42E-03    0.22E-06
   0      9    11.338   109.617    0.13E-03    0.20E-04    0.13E-06
   0      9    11.338    75.026    0.13E-03    0.20E-04    0.13E-06
   1      9    11.338    16.344    0.33E-04    0.24E-03    0.18E-06
   1      9    11.338    10.160    0.26E-04    0.19E-03    0.15E-06
 Optimization of the real space projectors (new method)

 maximal supplied QI-value         = 24.76
 optimisation between [QCUT,QGAM] = [ 11.39, 22.77] = [ 36.31,145.25] Ry 
 Optimized for a Real-space Cutoff    1.00 Angstroem

   l    n(q)    QCUT    max X(q) W(low)/X(q) W(high)/X(q)  e(spline) 
   0      7    11.387    20.381    0.39E-03    0.13E-02    0.15E-06
   0      7    11.387    15.268    0.42E-03    0.14E-02    0.17E-06
   1      6    11.387     5.964    0.41E-03    0.11E-02    0.17E-06
   1      6    11.387     5.382    0.39E-03    0.87E-03    0.15E-06
 Optimization of the real space projectors (new method)

 maximal supplied QI-value         = 15.12
 optimisation between [QCUT,QGAM] = [ 11.34, 22.83] = [ 36.00,145.93] Ry 
 Optimized for a Real-space Cutoff    1.56 Angstroem

   l    n(q)    QCUT    max X(q) W(low)/X(q) W(high)/X(q)  e(spline) 
   0     11    11.338    11.565    0.26E-04    0.80E-05    0.70E-07
   0     11    11.338    10.214    0.41E-04    0.15E-04    0.15E-06
   1     10    11.338   189.983    0.18E-03    0.52E-04    0.42E-06
   1     10    11.338   193.105    0.19E-03    0.52E-04    0.42E-06
   2     10    11.338   115.941    0.22E-03    0.42E-03    0.43E-06
   2     10    11.338    76.444    0.21E-03    0.41E-03    0.42E-06
 Optimization of the real space projectors (new method)

 maximal supplied QI-value         = 16.25
 optimisation between [QCUT,QGAM] = [ 11.38, 22.75] = [ 36.24,144.96] Ry 
 Optimized for a Real-space Cutoff    1.27 Angstroem

   l    n(q)    QCUT    max X(q) W(low)/X(q) W(high)/X(q)  e(spline) 
   0      9    11.376    12.277    0.53E-04    0.25E-04    0.25E-07
   0      9    11.376    11.419    0.89E-04    0.67E-05    0.35E-07
   1      8    11.376     4.010    0.13E-03    0.11E-03    0.29E-07
   1      8    11.376     6.182    0.94E-04    0.19E-03    0.11E-06
   2      8    11.376    47.177    0.13E-03    0.88E-03    0.24E-06
   2      8    11.376    42.437    0.13E-03    0.86E-03    0.23E-06
 Optimization of the real space projectors (new method)

 maximal supplied QI-value         = 34.20
 optimisation between [QCUT,QGAM] = [ 11.29, 22.57] = [ 35.68,142.71] Ry 
 Optimized for a Real-space Cutoff    1.16 Angstroem

   l    n(q)    QCUT    max X(q) W(low)/X(q) W(high)/X(q)  e(spline) 
   0      8    11.287    19.460    0.40E-03    0.73E-03    0.16E-06
   0      8    11.287    12.209    0.38E-03    0.70E-03    0.15E-06
   1      7    11.287     4.655    0.22E-03    0.25E-04    0.22E-06
 -----------------------------------------------------------------------------
|                                                                             |
|               ----> ADVICE to this user running VASP <----                  |
|                                                                             |
|     You enforced a specific xc type in the INCAR file but a different       |
|     type was found in the POTCAR file.                                      |
|     I HOPE YOU KNOW WHAT YOU ARE DOING!                                     |
|                                                                             |
 -----------------------------------------------------------------------------

  PAW_PBE Au 04Oct2007                  :
 energy of atom  1       EATOM= -926.0867
 kinetic energy error for atom=    0.0042 (will be added to EATOM!!)
  PAW_PBE O 08Apr2002                   :
 energy of atom  2       EATOM= -432.3788
 kinetic energy error for atom=    0.0224 (will be added to EATOM!!)
  PAW_PBE Sr_sv 07Sep2000               :
 energy of atom  3       EATOM= -843.0319
 kinetic energy error for atom=    0.0012 (will be added to EATOM!!)
  PAW_PBE Ti_sv 26Sep2005               :
 energy of atom  4       EATOM=-1588.0892
 kinetic energy error for atom=    0.0046 (will be added to EATOM!!)
  PAW_PBE H 15Jun2001                   :
 energy of atom  5       EATOM=  -12.4884
 kinetic energy error for atom=    0.0020 (will be added to EATOM!!)
 
 
 POSCAR: Au O  Sr Ti H
  positions in cartesian coordinates
  No initial velocities read in
 exchange correlation table for  LEXCH =       17
   RHO(1)=    0.500       N(1)  =     2000
   RHO(2)=  100.500       N(2)  =     4000

 VTST: version 4.1, (05/19/21)

 CHAIN: initializing optimizer
 
 OPT: Using VASP Dynamics algorithm
 CHAIN: Read ICHAIN            0
 
 POSCAR: Au O  Sr Ti H
  positions in cartesian coordinates
  No initial velocities read in
 


--------------------------------------------------------------------------------------------------------


 ion  position               nearest neighbor table
   1  0.716  0.527  0.754-  15 2.72  16 2.73  14 2.78  44 2.84   2 2.84  29 2.99  46 3.00
   2  0.623  0.569  0.704- 264 2.07  15 2.82   1 2.84  16 2.87  46 2.88  48 2.89  12 2.95  36 3.07
                            11 3.27   5 3.58 380 3.70
   3  0.718  0.258  0.691- 294 2.06 253 2.06  32 2.64  43 2.77  27 2.84 401 3.04 371 4.02 370 4.03

   4  0.295  0.746  0.697- 266 2.06 310 2.07   9 2.79  23 2.82  50 3.07  42 3.14  45 3.55 372 4.18
                           368 4.18
   5  0.509  0.602  0.778-  26 2.69  48 2.79  13 2.82  12 2.91  47 2.95  16 3.01  39 3.05   6 3.13
                            49 3.29  30 3.53  31 3.54   2 3.58
   6  0.577  0.721  0.793-  18 2.73  36 2.73  17 2.80  47 2.83  13 2.97  48 3.12   5 3.13  16 3.30

   7  0.548  0.380  0.825-  10 2.80  33 2.82  20 2.84  29 2.87  34 2.97  12 3.04  31 3.06  41 3.17

   8  0.240  0.468  0.708- 309 2.11  19 2.69  24 2.80  45 2.83  40 2.97  35 3.09 378 4.14
   9  0.283  0.661  0.764-  45 2.69  30 2.75  50 2.77   4 2.79  24 2.80
  10  0.606  0.284  0.786-  27 2.79  41 2.80   7 2.80  43 2.80  32 2.81  25 2.99  34 3.45
  11  0.515  0.485  0.678- 279 2.11 247 2.15  26 2.69  12 2.78  34 2.86  49 2.93 389 3.12   2 3.27
                            46 3.33 375 3.56 386 4.02
  12  0.561  0.486  0.762-  11 2.78  34 2.82  49 2.82  29 2.85  31 2.86   5 2.91   2 2.95  46 2.98
                            16 3.00   7 3.04
  13  0.463  0.695  0.831-   5 2.82  50 2.83  30 2.83  39 2.86  47 2.88  18 2.92   6 2.97
  14  0.765  0.433  0.706- 254 2.00  44 2.71   1 2.78  46 2.80  43 2.88 363 3.74 370 4.25
  15  0.733  0.616  0.693- 292 2.09 250 2.09  36 2.66   1 2.72   2 2.82  28 3.24 380 3.40 365 3.71

  16  0.633  0.586  0.798-   1 2.73  36 2.76  47 2.77  31 2.79   2 2.87  12 3.00   5 3.01   6 3.30
                            29 3.40
  17  0.595  0.783  0.713- 257 2.08  28 2.79   6 2.80  18 2.93  48 2.94  36 3.05 379 4.19
  18  0.485  0.776  0.757-   6 2.73  23 2.81  50 2.84  13 2.92  42 2.93  17 2.93  48 3.26
  19  0.349  0.500  0.698- 291 2.11   8 2.69  37 2.87  49 2.89  24 2.91  40 2.93  45 3.01  26 3.02
                           368 4.16 369 4.26
  20  0.429  0.372  0.815-  33 2.75  21 2.78   7 2.84  49 2.91  41 2.93  40 2.97  38 3.04  34 3.27

  21  0.373  0.298  0.755-  37 2.76  35 2.78  20 2.78  40 2.84  41 2.88  22 2.90
  22  0.446  0.230  0.696- 302 2.02 289 2.14  41 2.74  25 2.78  21 2.90  37 3.60 376 3.84
  23  0.392  0.818  0.707- 290 2.08  42 2.78  50 2.81  18 2.81   4 2.82 372 3.66 384 4.10
  24  0.288  0.537  0.777-   8 2.80   9 2.80  38 2.81  45 2.87  40 2.90  30 2.91  19 2.91
  25  0.560  0.208  0.713- 311 2.13  22 2.78  32 2.86  27 2.87  41 2.88  10 2.99 376 3.99 371 4.35

  26  0.452  0.580  0.702- 291 2.10   5 2.69  11 2.69  42 2.73  48 2.85  49 2.85  19 3.02 386 3.63

  27  0.614  0.321  0.698- 263 2.04  43 2.77  10 2.79   3 2.84  46 2.84  34 2.85  25 2.87 370 3.57
                            32 3.60 375 4.23
  28  0.707  0.758  0.688- 293 2.04 250 2.06  36 2.63  17 2.79 400 3.12  15 3.24 379 3.79 380 4.21

  29  0.655  0.436  0.809-  31 2.80  43 2.83  12 2.85  44 2.85   7 2.87   1 2.99  46 3.36  16 3.40

  30  0.369  0.618  0.817-   9 2.75  39 2.79  13 2.83  38 2.83  24 2.91  50 2.93   5 3.53
  31  0.577  0.507  0.856-  16 2.79  29 2.80  33 2.80  12 2.86  47 2.90   7 3.06  39 3.26   5 3.54

  32  0.669  0.188  0.751-   3 2.64  10 2.81  25 2.86  43 3.58  27 3.60
  33  0.474  0.452  0.875- 459 1.77  20 2.75  31 2.80   7 2.82  39 2.83  38 2.84
  34  0.515  0.378  0.730-  41 2.80  12 2.82  27 2.85  11 2.86  49 2.88   7 2.97  37 3.03  20 3.27
                            10 3.45  46 3.59 375 4.07
  35  0.283  0.338  0.703- 267 2.05  21 2.78  40 2.80  37 2.90   8 3.09 369 3.54 378 4.09
  36  0.670  0.682  0.748-  28 2.63  15 2.66   6 2.73  16 2.76  17 3.05   2 3.07  48 3.38
  37  0.397  0.382  0.690- 303 2.03 289 2.14  21 2.76  19 2.87  35 2.90  40 3.00  34 3.03  49 3.08
                           369 3.38  22 3.60 375 3.78
  38  0.374  0.493  0.833-  24 2.81  49 2.83  30 2.83  33 2.84  40 2.85  39 2.98  20 3.04
  39  0.458  0.578  0.870- 459 1.79  30 2.79  47 2.82  33 2.83  13 2.86  38 2.98   5 3.05  31 3.26

  40  0.325  0.414  0.769-  35 2.80  21 2.84  38 2.85  24 2.90  19 2.93  20 2.97   8 2.97  37 3.00
                            49 3.12
  41  0.489  0.271  0.775-  22 2.74  10 2.80  34 2.80  25 2.88  21 2.88  20 2.93   7 3.17
  42  0.419  0.697  0.699- 256 2.03  26 2.73  50 2.77  23 2.78  18 2.93  48 2.97   4 3.14 368 4.05
                           386 4.07
  43  0.702  0.345  0.756-  27 2.77   3 2.77  10 2.80  29 2.83  44 2.83  14 2.88  46 3.09  32 3.58

  44  0.774  0.431  0.796-  14 2.71  43 2.83   1 2.84  29 2.85
  45  0.257  0.592  0.694- 265 2.03 310 2.12   9 2.69   8 2.83  24 2.87  19 3.01   4 3.55 368 3.56
                           373 3.71
  46  0.647  0.443  0.698- 279 2.20  14 2.80  27 2.84   2 2.88  12 2.98   1 3.00  43 3.09  11 3.33
                            29 3.36 370 3.53  34 3.59
  47  0.564  0.636  0.863-  16 2.77  39 2.82   6 2.83  13 2.88  31 2.90   5 2.95
  48  0.541  0.665  0.702- 280 2.12   5 2.79  26 2.85   2 2.89  17 2.94  42 2.97   6 3.12  18 3.26
                            36 3.38 386 3.49
  49  0.443  0.475  0.757-  12 2.82  38 2.83  26 2.85  34 2.88  19 2.89  20 2.91  11 2.93  37 3.08
                            40 3.12   5 3.29
  50  0.374  0.738  0.778-   9 2.77  42 2.77  23 2.81  13 2.83  18 2.84  30 2.93   4 3.07
  51  0.250  0.189  0.454- 448 1.97 418 2.13 319 2.73 342 2.82 360 2.82 327 2.85
  52  0.750  0.938  0.455- 417 1.95 444 2.00 350 2.82 339 2.83 322 2.85 332 2.88
  53  0.749  0.689  0.457- 432 1.97 446 2.04 325 2.78 362 2.84 348 2.85 316 2.88
  54  0.749  0.439  0.456- 422 1.98 458 2.01 323 2.70 347 2.83 349 2.84 359 2.85
  55  0.750  0.190  0.456- 445 1.98 423 2.11 324 2.76 335 2.80 358 2.84 346 2.85
  56  0.418  0.936  0.454- 424 1.99 440 2.01 357 2.76 345 2.79 329 2.87 320 2.92
  57  0.417  0.685  0.455- 414 1.91 443 2.04 356 2.77 344 2.78 321 2.84 331 2.90
  58  0.416  0.435  0.454- 415 1.96 442 2.01 343 2.77 355 2.77 333 2.83 318 2.84
  59  0.085  0.687  0.453- 439 1.97 413 2.08 352 2.75 340 2.80 330 2.81 336 2.94
  60  0.084  0.937  0.454- 436 1.99 412 2.11 353 2.77 341 2.80 326 2.89 338 2.91
  61  0.083  0.437  0.453- 438 1.97 421 2.11 361 2.76 351 2.78 328 2.79 317 2.93
  62  0.084  0.187  0.453- 437 1.98 433 2.12 360 2.76 385 2.78 327 2.87 337 2.89
  63  0.917  0.812  0.454- 434 1.98 411 2.12 362 2.75 339 2.80 341 2.80 336 2.86
  64  0.916  0.562  0.454- 435 1.98 410 2.11 349 2.77 316 2.79 340 2.81 317 2.88
  65  0.251  0.439  0.455- 449 1.97 420 2.07 318 2.70 343 2.81 351 2.85 328 2.85
  66  0.916  0.062  0.454- 455 1.98 430 2.11 358 2.79 385 2.81 332 2.85 338 2.89
  67  0.916  0.312  0.454- 456 1.98 429 2.09 359 2.79 335 2.80 361 2.81 337 2.90
  68  0.417  0.187  0.454- 441 1.98 416 2.08 354 2.78 342 2.80 334 2.81 319 2.88
  69  0.252  0.688  0.456- 419 1.99 450 2.03 321 2.76 344 2.80 352 2.87 330 2.89
  70  0.916  0.937  0.454- 455 1.98 411 2.11 339 2.78 341 2.79 332 2.88 338 2.90
  71  0.583  0.190  0.455- 452 1.98 426 2.09 334 2.72 324 2.78 354 2.83 346 2.85
  72  0.000  0.125  0.498- 430 1.97 433 1.98 385 2.74 337 2.79 338 2.80
  73  0.584  0.810  0.456- 454 1.98 431 2.11 325 2.72 331 2.75 350 2.84 357 2.86
  74  1.000  0.373  0.498- 429 1.94 421 1.95 361 2.74 337 2.77 317 2.86
  75  1.000  0.627  0.498- 413 1.94 410 1.95 340 2.72 336 2.77 317 2.84
  76  0.334  0.126  0.499- 416 1.95 418 2.01 319 2.74 342 2.75 320 2.79 367 3.46
  77  0.000  0.875  0.500- 412 1.97 411 1.97 341 2.78 336 2.78 338 2.79
  78  0.334  0.874  0.499- 424 1.97 425 2.00 321 2.75 345 2.77 320 2.84 372 3.12
  79  0.666  0.126  0.499- 426 1.96 423 2.01 324 2.72 346 2.76 322 2.82 371 3.37
  80  0.336  0.626  0.504- 414 1.92 419 2.08 368 2.74 321 2.80 318 2.83 344 2.90
  81  0.334  0.378  0.503- 415 1.94 420 2.08 318 2.70 369 2.71 343 2.88 319 2.91
  82  0.665  0.379  0.503- 428 1.94 422 2.06 323 2.71 370 2.73 347 2.89 324 2.92
  83  0.915  0.687  0.453- 434 1.97 410 2.09 316 2.75 340 2.80 362 2.80 336 2.93
  84  0.916  0.437  0.454- 435 1.98 429 2.10 359 2.77 349 2.78 361 2.80 317 2.92
  85  0.916  0.187  0.453- 456 1.98 430 2.12 358 2.76 335 2.79 385 2.79 337 2.92
  86  0.583  0.936  0.454- 451 2.00 431 2.06 357 2.78 350 2.79 329 2.87 322 2.88
  87  0.583  0.686  0.455- 427 1.91 454 2.02 356 2.78 348 2.80 325 2.83 331 2.85
  88  0.583  0.439  0.456- 453 2.00 428 2.02 333 2.70 323 2.78 355 2.84 347 2.86
  89  0.250  0.936  0.454- 425 1.94 447 2.01 353 2.78 345 2.78 320 2.90 326 2.92
  90  0.665  0.626  0.503- 427 1.94 432 2.06 380 2.70 325 2.81 323 2.82 348 2.88
  91  0.585  0.563  0.455- 427 1.99 453 2.01 333 2.78 348 2.79 323 2.79 356 2.83
  92  0.583  0.063  0.455- 451 2.00 426 2.02 354 2.80 346 2.81 322 2.85 329 2.86
  93  0.917  0.687  0.361- 434 1.97 340 2.79 316 2.79
  94  0.917  0.437  0.361- 435 1.97 361 2.79 359 2.79
  95  0.917  0.188  0.361- 456 1.97 385 2.79 358 2.79
  96  0.583  0.938  0.361- 451 1.97 357 2.79 350 2.79
  97  0.583  0.687  0.361- 454 1.97 356 2.79 348 2.79
  98  0.583  0.437  0.361- 453 1.97 355 2.79 347 2.79
  99  0.583  0.188  0.361- 452 1.97 354 2.79 346 2.79
 100  0.250  0.938  0.361- 447 1.97 353 2.79 345 2.79
 101  0.917  0.938  0.361- 455 1.97 341 2.79 339 2.79
 102  0.250  0.687  0.361- 450 1.97 352 2.79 344 2.79
 103  0.250  0.188  0.361- 448 1.97 360 2.79 342 2.79
 104  0.750  0.938  0.361- 444 1.97 350 2.79 339 2.79
 105  0.750  0.687  0.361- 446 1.97 348 2.79 316 2.79
 106  0.750  0.437  0.361- 458 1.97 347 2.79 359 2.79
 107  0.750  0.188  0.361- 445 1.97 346 2.79 358 2.79
 108  0.417  0.938  0.361- 440 1.97 345 2.79 357 2.79
 109  0.417  0.687  0.361- 443 1.97 344 2.79 356 2.79
 110  0.417  0.437  0.361- 442 1.97 343 2.79 355 2.79
 111  0.250  0.437  0.361- 449 1.97 351 2.79 343 2.79
 112  0.083  0.063  0.361- 436 1.97 385 2.79 360 2.79
 113  0.083  0.312  0.361- 437 1.97 361 2.79 351 2.79
 114  0.083  0.563  0.361- 438 1.97 352 2.79 340 2.79
 115  0.917  0.312  0.361- 456 1.97 361 2.79 359 2.79
 116  0.917  0.063  0.361- 455 1.97 385 2.79 358 2.79
 117  0.583  0.812  0.361- 454 1.97 357 2.79 350 2.79
 118  0.583  0.563  0.361- 453 1.97 356 2.79 348 2.79
 119  0.583  0.312  0.361- 452 1.97 355 2.79 347 2.79
 120  0.583  0.063  0.361- 451 1.97 354 2.79 346 2.79
 121  0.250  0.812  0.361- 450 1.97 353 2.79 345 2.79
 122  0.250  0.563  0.361- 449 1.97 352 2.79 344 2.79
 123  0.250  0.312  0.361- 448 1.97 351 2.79 343 2.79
 124  0.250  0.063  0.361- 447 1.97 360 2.79 342 2.79
 125  0.750  0.812  0.361- 446 1.97 350 2.79 339 2.79
 126  0.750  0.563  0.361- 458 1.97 348 2.79 316 2.79
 127  0.750  0.312  0.361- 445 1.97 347 2.79 359 2.79
 128  0.750  0.063  0.361- 444 1.97 346 2.79 358 2.79
 129  0.417  0.812  0.361- 443 1.97 345 2.79 357 2.79
 130  0.417  0.563  0.361- 442 1.97 344 2.79 356 2.79
 131  0.417  0.312  0.361- 441 1.97 343 2.79 355 2.79
 132  0.417  0.063  0.361- 440 1.97 342 2.79 354 2.79
 133  0.083  0.812  0.361- 439 1.97 353 2.79 341 2.79
 134  0.417  0.188  0.361- 441 1.97 342 2.79 354 2.79
 135  0.083  0.938  0.361- 436 1.97 353 2.79 341 2.79
 136  0.083  0.687  0.361- 439 1.97 352 2.79 340 2.79
 137  0.083  0.437  0.361- 438 1.97 361 2.79 351 2.79
 138  0.833  0.500  0.407- 458 1.97 435 1.97 316 2.79 359 2.79 349 2.88
 139  0.833  0.750  0.407- 446 1.97 434 1.97 339 2.79 316 2.79 362 2.87
 140  0.084  0.062  0.454- 436 1.98 433 2.11 360 2.80 385 2.81 326 2.85 338 2.88
 141  0.084  0.312  0.454- 437 1.97 421 2.10 351 2.80 361 2.81 337 2.86 327 2.88
 142  0.084  0.562  0.454- 438 1.98 413 2.10 328 2.75 352 2.79 340 2.80 317 2.90
 143  0.083  0.812  0.454- 439 1.98 412 2.11 330 2.77 353 2.80 341 2.81 336 2.87
 144  0.417  0.062  0.455- 416 1.96 440 2.00 354 2.83 342 2.83 320 2.84 329 2.84
 145  0.416  0.311  0.457- 415 1.91 441 2.04 334 2.81 319 2.82 343 2.84 355 2.88
 146  0.416  0.560  0.458- 414 1.97 442 2.02 333 2.73 318 2.74 344 2.88 356 2.90
 147  0.417  0.810  0.455- 443 1.97 424 2.09 321 2.74 331 2.79 345 2.84 357 2.84
 148  0.750  0.064  0.453- 444 1.99 423 2.02 346 2.76 358 2.78 322 2.90 332 2.93
 149  0.747  0.314  0.455- 422 1.98 445 2.03 347 2.75 324 2.82 359 2.83 335 2.94
 150  0.748  0.564  0.454- 432 1.99 458 2.01 348 2.74 323 2.76 316 2.80 349 2.93
 151  0.749  0.813  0.453- 446 1.97 417 2.09 350 2.75 339 2.79 325 2.83 362 2.89
 152  0.251  0.062  0.454- 447 1.98 418 2.11 342 2.80 360 2.81 320 2.84 326 2.88
 153  0.915  0.313  0.547- 429 1.84 409 2.21 335 2.71 337 2.75 363 2.87 381 3.33
 154  0.252  0.314  0.454- 420 1.96 448 2.01 343 2.74 319 2.78 351 2.81 327 2.96
 155  0.252  0.565  0.454- 419 1.99 449 2.01 344 2.74 318 2.77 352 2.80 328 2.93
 156  0.251  0.811  0.455- 450 1.99 425 2.07 321 2.75 330 2.82 345 2.83 353 2.85
 157  0.833  0.250  0.407- 445 1.97 456 1.97 359 2.79 358 2.79 335 2.88
 158  0.584  0.315  0.454- 428 1.94 452 2.02 347 2.76 355 2.79 334 2.86 324 2.87
 159  0.833  0.000  0.407- 444 1.97 455 1.97 358 2.79 339 2.79 332 2.98
 160  0.500  0.500  0.407- 453 1.97 442 1.97 355 2.79 356 2.79 333 2.80
 161  0.083  0.188  0.361- 437 1.97 385 2.79 360 2.79
 162  0.000  0.000  0.407- 455 1.97 436 1.97 385 2.79 341 2.79 338 2.99
 163  0.000  0.250  0.407- 456 1.97 437 1.97 361 2.79 385 2.79 337 2.97
 164  0.000  0.500  0.407- 435 1.97 438 1.97 340 2.79 361 2.79 317 3.00
 165  0.000  0.750  0.407- 434 1.97 439 1.97 341 2.79 340 2.79 336 2.98
 166  0.333  0.000  0.407- 440 1.97 447 1.97 342 2.79 345 2.79 320 2.97
 167  0.333  0.250  0.407- 441 1.97 448 1.97 343 2.79 342 2.79 319 2.88
 168  0.333  0.500  0.407- 442 1.97 449 1.97 343 2.79 344 2.79 318 2.81
 169  0.333  0.750  0.407- 443 1.97 450 1.97 345 2.79 344 2.79 321 2.83
 170  0.667  0.000  0.407- 444 1.97 451 1.97 346 2.79 350 2.79 322 2.96
 171  0.667  0.250  0.407- 445 1.97 452 1.97 347 2.79 346 2.79 324 2.88
 172  0.667  0.500  0.407- 458 1.97 453 1.97 347 2.79 348 2.79 323 2.81
 173  0.667  0.750  0.407- 446 1.97 454 1.97 350 2.79 348 2.79 325 2.86
 174  0.167  0.000  0.407- 447 1.97 436 1.97 360 2.79 353 2.79 326 2.99
 175  0.167  0.250  0.407- 448 1.97 437 1.97 351 2.79 360 2.79 327 2.98
 176  0.167  0.500  0.407- 449 1.97 438 1.97 351 2.79 352 2.79 328 2.84
 177  0.167  0.750  0.407- 450 1.97 439 1.97 353 2.79 352 2.79 330 2.89
 178  0.500  0.000  0.407- 451 1.97 440 1.97 354 2.79 357 2.79 329 2.96
 179  0.500  0.250  0.407- 452 1.97 441 1.97 355 2.79 354 2.79 334 2.85
 180  0.500  0.750  0.407- 454 1.97 443 1.97 357 2.79 356 2.79 331 2.91
 181  0.167  0.124  0.499- 418 1.96 433 2.00 326 2.76 360 2.77 327 2.77
 182  0.918  0.063  0.548- 430 1.84 387 2.20 338 2.70 332 2.72 315 3.21 383 3.24
 183  0.168  0.873  0.500- 425 1.93 412 2.03 330 2.72 353 2.79 326 2.86 374 3.54
 184  0.252  0.188  0.547- 418 1.87 395 2.12 319 2.65 327 2.73 367 3.14 377 3.33
 185  0.750  0.934  0.548- 417 1.83 402 2.27 322 2.77 332 2.78 379 2.93 364 3.16
 186  0.752  0.680  0.553- 432 1.96 400 1.97 380 2.65 365 2.83 362 2.96 325 3.01
 187  0.752  0.434  0.550- 422 1.94 399 2.04 370 2.73 349 2.84 323 2.88 363 2.93
 188  0.423  0.444  0.545- 408 1.88 415 2.06 333 2.61 318 2.84 375 2.88 369 3.13
 189  0.424  0.688  0.546- 414 1.95 398 2.00 331 2.66 386 2.76 321 2.88 368 2.94
 190  0.748  0.184  0.551- 401 1.94 423 1.94 324 2.80 335 2.89 371 2.99 383 3.17
 191  0.416  0.937  0.546- 424 1.85 396 2.26 320 2.71 329 2.72 372 2.89 384 3.06
 192  0.084  0.938  0.546- 412 1.84 406 2.19 326 2.67 338 2.69 374 3.24 366 3.35
 193  0.416  0.191  0.547- 397 1.85 416 2.03 319 2.72 334 2.73 376 3.10 367 3.25
 194  0.087  0.690  0.545- 413 1.86 405 2.22 330 2.62 336 2.73 373 2.78
 195  0.082  0.439  0.545- 421 1.85 404 2.22 317 2.65 328 2.69 378 3.08 381 3.36
 196  0.084  0.189  0.545- 433 1.85 403 2.19 327 2.64 337 2.66 315 3.32 377 3.38
 197  0.499  0.126  0.500- 416 1.98 426 1.99 334 2.73 354 2.78 329 2.82 376 3.20
 198  1.000  0.501  0.594- 457 1.95 404 1.96 317 2.62 382 2.93 381 2.95
 199  0.999  0.753  0.592- 405 1.94 407 1.96 336 2.57 366 2.87 382 3.16
 200  0.335  0.254  0.593- 397 1.90 395 2.07 369 2.67 319 2.71 367 3.06
 201  0.334  1.000  0.592- 396 2.00 394 2.03 320 2.59 372 2.73 367 2.76
 202  1.000  0.999  0.593- 387 2.01 406 2.01 338 2.59 315 2.87 366 2.90
 203  0.001  0.250  0.592- 409 1.95 403 1.99 337 2.58 381 2.93 315 2.96
 204  0.333  0.496  0.591- 408 1.85 390 2.15 318 2.70 369 2.75 368 2.86
 205  0.336  0.741  0.590- 398 1.90 391 2.08 368 2.61 321 2.68 372 3.09
 206  0.663  0.247  0.591- 392 1.89 401 2.14 324 2.64 370 2.79 371 2.81
 207  0.666  0.000  0.592- 393 2.01 402 2.02 322 2.59 379 2.71 371 2.83
 208  0.666  0.741  0.591- 388 1.98 400 2.02 380 2.57 325 2.67 379 3.15
 209  0.667  0.494  0.591- 389 1.81 399 2.13 323 2.72 370 2.73 380 2.95
 210  0.167  0.998  0.592- 394 1.98 406 2.02 326 2.57 374 2.90 377 2.92
 211  0.168  0.249  0.593- 395 1.93 403 2.04 327 2.61 378 2.77 377 2.95
 212  0.171  0.750  0.595- 391 1.85 405 2.16 330 2.76 373 2.76 374 2.84
 213  0.249  0.436  0.549- 390 1.93 420 1.97 369 2.65 318 2.81 328 2.85 378 3.05
 214  0.165  0.502  0.587- 390 1.83 404 2.05 328 2.55 373 2.82 378 2.99
 215  0.249  0.683  0.552- 391 1.96 419 1.98 368 2.72 373 2.88 330 2.92 321 2.93
 216  0.581  0.186  0.549- 426 1.94 392 1.98 334 2.74 324 2.83 376 2.93 371 3.05
 217  0.916  0.813  0.547- 411 1.84 407 2.18 362 2.68 336 2.71 364 3.24 366 3.31
 218  0.917  0.564  0.547- 410 1.84 457 2.23 317 2.69 349 2.73 365 2.86 382 3.48
 219  0.581  0.560  0.549- 389 1.89 427 2.08 386 2.68 333 2.75 380 2.82 323 2.86
 220  0.587  0.815  0.551- 431 1.92 388 2.08 325 2.75 331 2.84 379 2.90 384 3.02
 221  0.583  0.312  0.546- 428 1.90 392 2.11 334 2.74 324 2.76 375 2.77 370 2.87
 222  0.583  0.063  0.547- 426 1.84 393 2.22 329 2.72 322 2.72 376 2.95 371 3.07
 223  0.253  0.813  0.551- 391 1.83 425 2.07 321 2.77 372 2.89 330 2.89 374 3.19
 224  0.252  0.559  0.544- 419 1.91 390 2.04 318 2.63 328 2.79 368 2.87 373 3.18
 225  0.250  0.314  0.546- 420 1.85 395 2.30 369 2.65 327 2.73 319 2.73 378 3.04
 226  0.251  0.062  0.547- 418 1.84 394 2.24 320 2.68 326 2.72 367 3.05 377 3.28
 227  0.748  0.808  0.545- 400 1.83 417 2.03 325 2.66 362 2.75 379 3.15 364 3.33
 228  0.747  0.557  0.544- 432 1.96 399 1.96 323 2.61 349 2.77 380 2.85 365 3.22
 229  0.415  0.812  0.548- 398 1.95 424 1.96 321 2.72 331 2.76 372 2.93 384 3.10
 230  0.748  0.060  0.545- 423 1.84 402 2.21 322 2.63 332 2.68 371 3.16 383 3.35
 231  0.748  0.311  0.548- 401 1.97 422 1.98 370 2.66 324 2.73 335 2.84 363 3.03
 232  0.416  0.320  0.553- 397 1.96 415 1.98 375 2.66 369 2.73 319 2.99 334 2.99
 233  0.420  0.565  0.555- 408 1.90 414 2.12 386 2.65 368 2.71 333 2.92 318 3.04
 234  0.417  0.065  0.547- 416 1.84 396 2.26 320 2.74 329 2.77 376 2.94 367 3.08
 235  0.085  0.813  0.547- 412 1.85 405 2.17 330 2.67 336 2.73 374 3.16 366 3.33
 236  0.082  0.564  0.546- 413 1.84 404 2.23 317 2.69 328 2.75 373 2.82 382 3.49
 237  0.086  0.314  0.547- 421 1.84 403 2.24 327 2.68 337 2.77 378 2.88 381 3.35
 238  0.082  0.063  0.548- 433 1.84 406 2.22 338 2.70 326 2.71 315 3.19 377 3.29
 239  0.916  0.939  0.546- 411 1.84 387 2.21 332 2.66 338 2.70 364 3.24 366 3.33
 240  0.913  0.689  0.545- 410 1.84 407 2.24 362 2.63 336 2.72 365 2.83
 241  0.583  0.939  0.546- 431 1.84 393 2.24 322 2.67 329 2.68 379 2.97 384 3.07
 242  0.917  0.189  0.545- 430 1.85 409 2.17 335 2.66 337 2.68 383 3.30 315 3.33
 243  0.916  0.438  0.546- 429 1.85 457 2.23 349 2.68 317 2.69 363 2.95 381 3.36
 244  0.576  0.436  0.552- 389 1.94 428 2.06 375 2.63 333 2.75 370 2.94 323 3.02
 245  0.580  0.686  0.547- 427 1.93 388 2.11 386 2.65 331 2.71 380 2.80 325 2.84
 246  0.252  0.937  0.545- 425 1.83 394 2.22 320 2.68 326 2.74 372 2.93 374 3.30
 247  0.497  0.505  0.609- 408 2.10  11 2.15 389 2.25 386 2.72 375 3.00 333 3.26
 248  0.499  0.253  0.590- 397 1.99 392 2.03 375 2.64 334 2.65 376 2.97
 249  0.499  0.000  0.591- 396 2.00 393 2.00 329 2.57 376 2.76 384 2.81
 250  0.755  0.693  0.658-  28 2.06  15 2.09 400 2.41 365 2.99 380 3.22
 251  0.748  0.937  0.640- 402 1.80 364 2.49 379 2.53
 252  0.253  0.186  0.641- 395 1.74 367 2.51 377 2.55
 253  0.746  0.194  0.647- 401 2.00   3 2.06 371 2.68 383 2.71
 254  0.756  0.436  0.639- 399 2.00  14 2.00 363 2.61 370 2.82
 255  0.417  0.935  0.640- 396 1.79 384 2.53 372 2.58
 256  0.421  0.675  0.633-  42 2.03 398 2.04 386 2.55 368 2.62
 257  0.591  0.810  0.647- 388 1.96  17 2.08 379 2.64 384 2.85
 258  0.916  0.063  0.642- 387 1.80 383 2.49 315 2.50
 259  0.913  0.562  0.642- 457 1.79 382 2.48 365 2.54
 260  0.915  0.312  0.640- 409 1.80 381 2.50 363 2.52
 261  0.914  0.813  0.642- 407 1.79 364 2.50 366 2.51
 262  0.582  0.065  0.640- 393 1.79 371 2.51 376 2.52
 263  0.583  0.320  0.634- 392 1.97  27 2.04 375 2.54 370 2.66
 264  0.591  0.565  0.639- 389 1.98   2 2.07 380 2.63 386 2.81
 265  0.247  0.573  0.628- 390 1.99  45 2.03 373 2.54 368 2.55
 266  0.262  0.799  0.647- 391 1.96   4 2.06 372 2.79 374 2.95
 267  0.249  0.316  0.642- 395 1.94  35 2.05 378 2.59 369 2.66
 268  0.251  0.059  0.642- 394 1.79 367 2.49 377 2.50
 269  0.917  0.563  0.361- 435 1.97 340 2.79 316 2.79
 270  0.500  0.374  0.500- 415 1.98 428 1.99 355 2.78 333 2.80 334 2.82 375 2.86
 271  0.500  0.873  0.501- 424 1.98 431 1.99 331 2.68 357 2.82 329 2.83 384 3.25
 272  0.500  0.621  0.500- 427 1.97 414 1.98 333 2.71 356 2.79 386 2.81 331 2.94
 273  0.832  0.623  0.500- 432 1.90 410 2.04 349 2.75 316 2.79 362 2.88 365 3.10
 274  0.833  0.874  0.499- 417 1.95 411 2.01 362 2.74 339 2.75 332 2.83
 275  0.832  0.373  0.500- 422 1.89 429 2.05 359 2.78 335 2.79 349 2.83 363 3.14
 276  0.833  0.124  0.500- 423 1.95 430 2.01 335 2.77 332 2.78 358 2.78
 277  0.167  0.376  0.498- 420 1.90 421 2.02 351 2.73 328 2.76 327 2.87 378 3.30
 278  0.168  0.624  0.500- 419 1.90 413 2.06 328 2.78 352 2.79 330 2.84 373 3.04
 279  0.582  0.439  0.646- 389 2.10  11 2.11  46 2.20 375 2.86 370 3.02
 280  0.579  0.685  0.640- 388 1.87  48 2.12 386 2.63 380 2.81
 281  0.917  0.187  0.641- 409 1.79 383 2.49 315 2.52
 282  0.582  0.935  0.639- 393 1.80 384 2.49 379 2.50
 283  0.830  0.751  0.593- 400 1.87 407 2.09 362 2.71 365 2.79 364 2.90
 284  0.831  0.248  0.591- 401 1.84 409 2.12 335 2.65 363 2.80 383 2.88
 285  0.833  0.503  0.589- 399 1.83 457 2.06 349 2.59 365 2.80 363 2.96
 286  0.832  0.002  0.592- 402 1.99 387 2.02 332 2.57 383 2.86 364 2.91
 287  0.502  0.757  0.593- 388 1.95 398 2.05 331 2.67 384 2.72 386 2.94
 288  0.418  0.065  0.640- 396 1.80 367 2.50 376 2.54
 289  0.427  0.305  0.655-  37 2.14  22 2.14 397 2.31 375 2.91 369 3.40
 290  0.414  0.812  0.640- 398 1.95  23 2.08 372 2.62 384 2.67
 291  0.397  0.551  0.652-  26 2.10  19 2.11 408 2.16 368 2.79 386 3.49
 292  0.752  0.571  0.634- 399 1.93  15 2.09 365 2.60 380 2.67
 293  0.742  0.811  0.640- 400 1.98  28 2.04 379 2.59 364 2.67
 294  0.746  0.312  0.640- 401 2.01   3 2.06 370 2.63 363 2.75
 295  0.748  0.067  0.639- 402 1.80 371 2.48 383 2.48
 296  0.084  0.312  0.640- 403 1.80 381 2.49 378 2.50
 297  0.667  0.875  0.499- 431 1.97 417 2.00 325 2.75 350 2.76 322 2.80 379 3.24
 298  0.087  0.562  0.641- 404 1.80 382 2.48 373 2.53
 299  0.084  0.060  0.642- 406 1.80 377 2.49 315 2.51
 300  0.087  0.436  0.639- 404 1.79 378 2.51 381 2.52
 301  0.084  0.186  0.641- 403 1.79 315 2.50 377 2.50
 302  0.419  0.189  0.640- 397 1.99  22 2.02 376 2.63 367 2.70
 303  0.415  0.419  0.630-  37 2.03 408 2.07 375 2.54 369 2.59
 304  0.084  0.935  0.641- 406 1.80 374 2.48 366 2.49
 305  0.083  0.687  0.639- 405 1.79 382 2.46 373 2.51
 306  0.913  0.436  0.640- 457 1.79 363 2.52 381 2.53
 307  0.916  0.687  0.639- 407 1.80 382 2.47 365 2.50
 308  0.914  0.937  0.641- 387 1.80 364 2.47 366 2.50
 309  0.240  0.442  0.641- 390 1.90   8 2.11 378 2.61 369 2.91
 310  0.258  0.677  0.662-   4 2.07  45 2.12 368 2.93 373 3.17
 311  0.578  0.191  0.644- 392 1.91  25 2.13 376 2.66 371 2.72
 312  0.252  0.930  0.637- 394 1.81 374 2.47 372 2.49
 313  0.084  0.812  0.642- 405 1.79 374 2.48 366 2.52
 314  0.917  0.812  0.361- 434 1.97 341 2.79 339 2.79
 315  0.001  0.123  0.620- 301 2.50 258 2.50 299 2.51 281 2.52 202 2.87 203 2.96 238 3.19 182 3.21
                           196 3.32 242 3.33 387 3.42 406 3.42 409 3.44 403 3.45 433 3.91 430 3.93
 316  0.833  0.625  0.407-  83 2.75  64 2.79 273 2.79 126 2.79 105 2.79 269 2.79  93 2.79 138 2.79
                           139 2.79 150 2.80  53 2.88 458 3.42 446 3.42 435 3.42 434 3.42 432 3.44
 317  0.999  0.501  0.507- 198 2.62 195 2.65 218 2.69 236 2.69 243 2.69  75 2.84  74 2.86  64 2.88
                           142 2.90  84 2.92  61 2.93 164 3.00 410 3.39 413 3.40 429 3.41 421 3.42
 318  0.331  0.499  0.501- 224 2.63  65 2.70 204 2.70  81 2.70 146 2.74 155 2.77 213 2.81 168 2.81
                            80 2.83 188 2.84  58 2.84 233 3.04 408 3.35 449 3.41 419 3.42 415 3.44
 319  0.330  0.248  0.503- 184 2.65 200 2.71 193 2.72  51 2.73 225 2.73  76 2.74 154 2.78 145 2.82
                           167 2.88  68 2.88  81 2.91 232 2.99 397 3.32 418 3.36 420 3.42 448 3.44
 320  0.333  0.001  0.506- 201 2.59 246 2.68 226 2.68 191 2.71 234 2.74  76 2.79 144 2.84  78 2.84
                           152 2.84  89 2.90  56 2.92 166 2.97 416 3.33 425 3.38 418 3.40 424 3.40
 321  0.334  0.751  0.501- 205 2.68 229 2.72 147 2.74  78 2.75 156 2.75  69 2.76 223 2.77  80 2.80
                           169 2.83  57 2.84 189 2.88 215 2.93 391 3.38 398 3.39 414 3.41 424 3.42
 322  0.666  0.000  0.506- 207 2.59 230 2.63 241 2.67 222 2.72 185 2.77 297 2.80  79 2.82  52 2.85
                            92 2.85  86 2.88 148 2.90 170 2.96 417 3.37 426 3.37 423 3.39 431 3.39
 323  0.668  0.500  0.501- 228 2.61  54 2.70  82 2.71 209 2.72 150 2.76  88 2.78  91 2.79 172 2.81
                            90 2.82 219 2.86 187 2.88 244 3.02 389 3.34 458 3.41 422 3.42 432 3.42
 324  0.667  0.248  0.503- 206 2.64  79 2.72 231 2.73  55 2.76 221 2.76  71 2.78 190 2.80 149 2.82
                           216 2.83 158 2.87 171 2.88  82 2.92 426 3.41 401 3.41 428 3.43 423 3.43
 325  0.665  0.752  0.502- 227 2.66 208 2.67  73 2.72 220 2.75 297 2.75  53 2.78  90 2.81  87 2.83
                           151 2.83 245 2.84 173 2.86 186 3.01 400 3.34 431 3.37 427 3.39 454 3.46
 326  0.166  0.001  0.507- 210 2.57 192 2.67 238 2.71 226 2.72 246 2.74 181 2.76 140 2.85 183 2.86
                           152 2.88  60 2.89  89 2.92 174 2.99 425 3.37 418 3.38 433 3.39 412 3.43
 327  0.166  0.248  0.506- 211 2.61 196 2.64 237 2.68 184 2.73 225 2.73 181 2.77  51 2.85 277 2.87
                            62 2.87 141 2.88 154 2.96 175 2.98 420 3.37 418 3.39 433 3.39 421 3.46
 328  0.163  0.500  0.502- 214 2.55 195 2.69 236 2.75 142 2.75 277 2.76 278 2.78  61 2.79 224 2.79
                           176 2.84 213 2.85  65 2.85 155 2.93 390 3.32 421 3.40 438 3.42 413 3.43
 329  0.500  0.999  0.506- 249 2.57 241 2.68 191 2.72 222 2.72 234 2.77 197 2.82 271 2.83 144 2.84
                            92 2.86  56 2.87  86 2.87 178 2.96 424 3.38 416 3.38 426 3.40 431 3.40
 330  0.164  0.752  0.503- 194 2.62 235 2.67 183 2.72 212 2.76 143 2.77  59 2.81 156 2.82 278 2.84
                           223 2.89 177 2.89  69 2.89 215 2.92 391 3.33 412 3.37 413 3.43 419 3.46
 331  0.501  0.753  0.504- 189 2.66 287 2.67 271 2.68 245 2.71  73 2.75 229 2.76 147 2.79 220 2.84
                            87 2.85  57 2.90 180 2.91 272 2.94 431 3.37 398 3.38 424 3.41 427 3.42
 332  0.834  0.000  0.507- 286 2.57 239 2.66 230 2.68 182 2.72 276 2.78 185 2.78 274 2.83  66 2.85
                            52 2.88  70 2.88 148 2.93 159 2.98 417 3.36 423 3.36 430 3.41 411 3.41
 333  0.501  0.500  0.500- 188 2.61  88 2.70 272 2.71 146 2.73 219 2.75 244 2.75  91 2.78 160 2.80
                           270 2.80  58 2.83 233 2.92 247 3.26 453 3.40 428 3.43 442 3.44 427 3.45
 334  0.501  0.248  0.502- 248 2.65  71 2.72 193 2.73 197 2.73 216 2.74 221 2.74  68 2.81 145 2.81
                           270 2.82 179 2.85 158 2.86 232 2.99 397 3.37 426 3.39 428 3.41 452 3.45
 335  0.836  0.248  0.503- 284 2.65 242 2.66 153 2.71 276 2.77 275 2.79  85 2.79  55 2.80  67 2.80
                           231 2.84 157 2.88 190 2.89 149 2.94 401 3.34 430 3.37 429 3.43 422 3.45
 336  1.000  0.751  0.507- 199 2.57 217 2.71 240 2.72 194 2.73 235 2.73  75 2.77  77 2.78  63 2.86
                           143 2.87  83 2.93  59 2.94 165 2.98 413 3.39 410 3.39 412 3.40 411 3.40
 337  0.001  0.250  0.506- 203 2.58 196 2.66 242 2.68 153 2.75 237 2.77  74 2.77  72 2.79 141 2.86
                            62 2.89  67 2.90  85 2.92 163 2.97 421 3.38 429 3.40 433 3.40 430 3.41
 338  0.000  1.000  0.507- 202 2.59 192 2.69 239 2.70 238 2.70 182 2.70  77 2.79  72 2.80 140 2.88
                            66 2.89  70 2.90  60 2.91 162 2.99 411 3.40 430 3.40 412 3.41 433 3.41
 339  0.833  0.875  0.407- 274 2.75  70 2.78 151 2.79 125 2.79 104 2.79 314 2.79 101 2.79 139 2.79
                           159 2.79  63 2.80  52 2.83 446 3.42 434 3.42 444 3.42 455 3.42 417 3.48
 340  0.000  0.625  0.407-  75 2.72 269 2.79  93 2.79 114 2.79 136 2.79 164 2.79 165 2.79  59 2.80
                            83 2.80 142 2.80  64 2.81 435 3.42 434 3.42 438 3.42 439 3.42 413 3.52
 341  0.000  0.875  0.407-  77 2.78  70 2.79 314 2.79 133 2.79 101 2.79 135 2.79 165 2.79 162 2.79
                            60 2.80  63 2.80 143 2.81 434 3.42 439 3.42 455 3.42 436 3.42 412 3.58
 342  0.333  0.125  0.407-  76 2.75 132 2.79 134 2.79 124 2.79 103 2.79 166 2.79 167 2.79  68 2.80
                           152 2.80  51 2.82 144 2.83 440 3.42 441 3.42 447 3.42 448 3.42 416 3.48
 343  0.333  0.375  0.407- 154 2.74  58 2.77 110 2.79 131 2.79 111 2.79 123 2.79 167 2.79 168 2.79
                            65 2.81 145 2.84  81 2.88 441 3.42 442 3.42 448 3.42 449 3.42 415 3.43
 344  0.333  0.625  0.407- 155 2.74  57 2.78 130 2.79 109 2.79 122 2.79 102 2.79 168 2.79 169 2.79
                            69 2.80 146 2.88  80 2.90 442 3.42 443 3.42 449 3.42 450 3.42 414 3.44
 345  0.333  0.875  0.407-  78 2.77  89 2.78 129 2.79 121 2.79 108 2.79 100 2.79 169 2.79 166 2.79
                            56 2.79 156 2.83 147 2.84 443 3.42 450 3.42 440 3.42 447 3.42 425 3.49
 346  0.667  0.125  0.407-  79 2.76 148 2.76 128 2.79 107 2.79 120 2.79  99 2.79 170 2.79 171 2.79
                            92 2.81  71 2.85  55 2.85 444 3.42 445 3.42 451 3.42 452 3.42 426 3.53
 347  0.667  0.375  0.407- 149 2.75 158 2.76 106 2.79 127 2.79  98 2.79 119 2.79 171 2.79 172 2.79
                            54 2.83  88 2.86  82 2.89 445 3.42 458 3.42 453 3.42 452 3.42 428 3.46
 348  0.667  0.625  0.407- 150 2.74  91 2.79 126 2.79 105 2.79 118 2.79  97 2.79 172 2.79 173 2.79
                            87 2.80  53 2.85  90 2.88 458 3.42 446 3.42 453 3.42 454 3.42 427 3.43
 349  0.836  0.500  0.503- 285 2.59 243 2.68 218 2.73 273 2.75 228 2.77  64 2.77  84 2.78 275 2.83
                            54 2.84 187 2.84 138 2.88 150 2.93 399 3.35 422 3.41 429 3.41 432 3.42
 350  0.667  0.875  0.407- 151 2.75 297 2.76  86 2.79 125 2.79 104 2.79 117 2.79  96 2.79 173 2.79
                           170 2.79  52 2.82  73 2.84 446 3.42 454 3.42 444 3.42 451 3.42 417 3.50
 351  0.167  0.375  0.407- 277 2.73  61 2.78 111 2.79 137 2.79 123 2.79 113 2.79 176 2.79 175 2.79
                           141 2.80 154 2.81  65 2.85 448 3.42 449 3.42 437 3.42 438 3.42 420 3.44
 352  0.167  0.625  0.407-  59 2.75 142 2.79 122 2.79 102 2.79 114 2.79 136 2.79 176 2.79 177 2.79
                           278 2.79 155 2.80  69 2.87 449 3.42 450 3.42 438 3.42 439 3.42 419 3.45
 353  0.167  0.875  0.407-  60 2.77  89 2.78 183 2.79 121 2.79 133 2.79 100 2.79 135 2.79 177 2.79
                           174 2.79 143 2.80 156 2.85 450 3.42 439 3.42 447 3.42 436 3.42 425 3.47
 354  0.500  0.125  0.407-  68 2.78 197 2.78 120 2.79  99 2.79 132 2.79 134 2.79 178 2.79 179 2.79
                            92 2.80 144 2.83  71 2.83 451 3.42 452 3.42 440 3.42 441 3.42 416 3.50
 355  0.500  0.375  0.407-  58 2.77 270 2.78 158 2.79  98 2.79 119 2.79 110 2.79 131 2.79 179 2.79
                           160 2.79  88 2.84 145 2.88 452 3.42 453 3.42 441 3.42 442 3.42 415 3.44
 356  0.500  0.625  0.407-  57 2.77  87 2.78 118 2.79  97 2.79 130 2.79 109 2.79 160 2.79 180 2.79
                           272 2.79  91 2.83 146 2.90 453 3.42 454 3.42 442 3.42 443 3.42 427 3.44
 357  0.500  0.875  0.407-  56 2.76  86 2.78 117 2.79 129 2.79  96 2.79 108 2.79 180 2.79 178 2.79
                           271 2.82 147 2.84  73 2.86 454 3.42 443 3.42 451 3.42 440 3.42 424 3.51
 358  0.833  0.125  0.407-  85 2.76 148 2.78 276 2.78 128 2.79 107 2.79 116 2.79  95 2.79 159 2.79
                           157 2.79  66 2.79  55 2.84 444 3.42 445 3.42 455 3.42 456 3.42 423 3.53
 359  0.833  0.375  0.407-  84 2.77 275 2.78 106 2.79 127 2.79  94 2.79 115 2.79 157 2.79 138 2.79
                            67 2.79 149 2.83  54 2.85 445 3.42 458 3.42 456 3.42 435 3.42 422 3.45
 360  0.167  0.125  0.407-  62 2.76 181 2.77 124 2.79 103 2.79 112 2.79 161 2.79 174 2.79 175 2.79
                           140 2.80 152 2.81  51 2.82 447 3.42 448 3.42 436 3.42 437 3.42 418 3.58
 361  0.000  0.375  0.407-  74 2.74  61 2.76  94 2.79 115 2.79 137 2.79 113 2.79 163 2.79 164 2.79
                            84 2.80 141 2.81  67 2.81 435 3.42 456 3.42 438 3.42 437 3.42 429 3.54
 362  0.836  0.752  0.503- 240 2.63 217 2.68 283 2.71 274 2.74 227 2.75  63 2.75  83 2.80  53 2.84
                           139 2.87 273 2.88 151 2.89 186 2.96 400 3.31 411 3.37 410 3.43 434 3.45
 363  0.837  0.372  0.605- 306 2.52 260 2.52 254 2.61 294 2.75 284 2.80 153 2.87 187 2.93 243 2.95
                           285 2.96 231 3.03 275 3.14 409 3.39 401 3.42 457 3.44 399 3.49 429 3.53
 364  0.832  0.876  0.618- 308 2.47 251 2.49 261 2.50 293 2.67 283 2.90 286 2.91 185 3.16 217 3.24
                           239 3.24 227 3.33 387 3.44 402 3.44 400 3.46 407 3.47 411 3.90 366 3.95
 365  0.840  0.627  0.603- 307 2.50 259 2.54 292 2.60 283 2.79 285 2.80 186 2.83 240 2.83 218 2.86
                           250 2.99 273 3.10 228 3.22 407 3.34 457 3.38 399 3.41 410 3.46 400 3.52
 366  0.999  0.875  0.622- 304 2.49 308 2.50 261 2.51 313 2.52 199 2.87 202 2.90 217 3.31 239 3.33
                           235 3.33 192 3.35 407 3.41 405 3.42 406 3.45 387 3.46 374 3.95 364 3.95
 367  0.332  0.120  0.614- 268 2.49 288 2.50 252 2.51 302 2.70 201 2.76 226 3.05 200 3.06 234 3.08
                           184 3.14 193 3.25 394 3.36 396 3.36 395 3.43  76 3.46 397 3.54 418 3.76
 368  0.334  0.624  0.595- 265 2.55 205 2.61 256 2.62 233 2.71 215 2.72  80 2.74 291 2.79 204 2.86
                           224 2.87 310 2.93 189 2.94 408 3.37 398 3.41 414 3.44 419 3.44 391 3.50
 369  0.326  0.374  0.593- 303 2.59 213 2.65 225 2.65 267 2.66 200 2.67  81 2.71 232 2.73 204 2.75
                           309 2.91 188 3.13 420 3.29  37 3.38 395 3.40 289 3.40 390 3.40 408 3.42
 370  0.671  0.372  0.594- 294 2.63 263 2.66 231 2.66 187 2.73 209 2.73  82 2.73 206 2.79 254 2.82
                           221 2.87 244 2.94 279 3.02 422 3.36 401 3.40 389 3.44 428 3.45 392 3.46
 371  0.665  0.124  0.611- 295 2.48 262 2.51 253 2.68 311 2.72 206 2.81 207 2.83 190 2.99 216 3.05
                           222 3.07 230 3.16  79 3.37 392 3.38 393 3.39 402 3.40 401 3.51 426 3.74
 372  0.335  0.878  0.603- 312 2.49 255 2.58 290 2.62 201 2.73 266 2.79 223 2.89 191 2.89 229 2.93
                           246 2.93 205 3.09  78 3.12 394 3.33 396 3.34 398 3.46 391 3.48 424 3.56
 373  0.159  0.627  0.601- 305 2.51 298 2.53 265 2.54 212 2.76 194 2.78 214 2.82 236 2.82 215 2.88
                           278 3.04 310 3.17 224 3.18 405 3.34 404 3.38 413 3.41 390 3.50 391 3.52
 374  0.166  0.873  0.618- 312 2.47 304 2.48 313 2.48 212 2.84 210 2.90 266 2.95 235 3.16 223 3.19
                           192 3.24 246 3.30 391 3.43 405 3.43 394 3.44 406 3.44 183 3.54 412 3.87
 375  0.502  0.372  0.595- 263 2.54 303 2.54 244 2.63 248 2.64 232 2.66 221 2.77 270 2.86 279 2.86
                           188 2.88 289 2.91 247 3.00 392 3.38 428 3.40 397 3.43 415 3.48 408 3.54
 376  0.500  0.122  0.606- 262 2.52 288 2.54 302 2.63 311 2.66 249 2.76 216 2.93 234 2.94 222 2.95
                           248 2.97 193 3.10 197 3.20 393 3.33 396 3.36 392 3.44 397 3.51 426 3.62
 377  0.168  0.123  0.622- 299 2.49 301 2.50 268 2.50 252 2.55 210 2.92 211 2.95 226 3.28 238 3.29
                           184 3.33 196 3.38 395 3.40 394 3.44 406 3.45 403 3.48 367 3.89 315 3.95
 378  0.163  0.371  0.608- 296 2.50 300 2.51 267 2.59 309 2.61 211 2.77 237 2.88 214 2.99 225 3.04
                           213 3.05 195 3.08 277 3.30 403 3.34 390 3.41 395 3.46 404 3.47 421 3.61
 379  0.665  0.881  0.607- 282 2.50 251 2.53 293 2.59 257 2.64 207 2.71 220 2.90 185 2.93 241 2.97
                           208 3.15 227 3.15 297 3.24 393 3.32 402 3.36 388 3.52 400 3.55 431 3.60
 380  0.666  0.626  0.593- 208 2.57 264 2.63 186 2.65 292 2.67  90 2.70 245 2.80 280 2.81 219 2.82
                           228 2.85 209 2.95 250 3.22 389 3.32 388 3.38 427 3.39 432 3.40  15 3.40
 381  1.000  0.375  0.623- 296 2.49 260 2.50 300 2.52 306 2.53 203 2.93 198 2.95 153 3.33 237 3.35
                           243 3.36 195 3.36 409 3.45 404 3.45 457 3.45 403 3.49 378 3.89 363 3.90
 382  0.999  0.622  0.633- 305 2.46 307 2.47 259 2.48 298 2.48 198 2.93 199 3.16 457 3.44 404 3.45
                           218 3.48 236 3.49 405 3.57 407 3.59 365 3.89 373 3.90 317 4.64 336 4.75
 383  0.834  0.125  0.619- 295 2.48 258 2.49 281 2.49 253 2.71 286 2.86 284 2.88 190 3.17 182 3.24
                           242 3.30 230 3.35 402 3.42 401 3.42 387 3.43 409 3.47 430 3.92 315 3.96
 384  0.500  0.877  0.609- 282 2.49 255 2.53 290 2.67 287 2.72 249 2.81 257 2.85 220 3.02 191 3.06
                           241 3.07 229 3.10 271 3.25 393 3.39 396 3.39 388 3.47 398 3.49 431 3.67
 385  0.000  0.125  0.407-  72 2.74  62 2.78 116 2.79  95 2.79 112 2.79 161 2.79 162 2.79 163 2.79
                            85 2.79  66 2.81 140 2.81 455 3.42 456 3.42 436 3.42 437 3.42 430 3.57
 386  0.504  0.625  0.594- 256 2.55 280 2.63 245 2.65 233 2.65 219 2.68 247 2.72 189 2.76 272 2.81
                           264 2.81 287 2.94 388 3.37 427 3.37 389 3.44 414 3.46  48 3.49 398 3.49
 387  0.916  0.000  0.604- 258 1.80 308 1.80 202 2.01 286 2.02 182 2.20 239 2.21 315 3.42 383 3.43
                           364 3.44 366 3.46 332 3.51 338 3.53
 388  0.584  0.749  0.600- 280 1.87 287 1.95 257 1.96 208 1.98 220 2.08 245 2.11 386 3.37 380 3.38
                           384 3.47 331 3.49 325 3.51 379 3.52
 389  0.591  0.501  0.593- 209 1.81 219 1.89 244 1.94 264 1.98 279 2.10 247 2.25  11 3.12 380 3.32
                           323 3.34 386 3.44 370 3.44 333 3.50 375 3.57
 390  0.242  0.498  0.593- 214 1.83 309 1.90 213 1.93 265 1.99 224 2.04 204 2.15 328 3.32 369 3.40
                           378 3.41 318 3.49 373 3.50 368 3.56
 391  0.249  0.753  0.592- 223 1.83 212 1.85 215 1.96 266 1.96 205 2.08 330 3.33 321 3.38 374 3.43
                           372 3.48 368 3.50 373 3.52
 392  0.584  0.248  0.597- 206 1.89 311 1.91 263 1.97 216 1.98 248 2.03 221 2.11 371 3.38 375 3.38
                           324 3.44 376 3.44 370 3.46 334 3.46
 393  0.582  0.001  0.604- 262 1.79 282 1.80 249 2.00 207 2.01 222 2.22 241 2.24 379 3.32 376 3.33
                           371 3.39 384 3.39 329 3.55 322 3.56
 394  0.250  0.998  0.604- 268 1.79 312 1.81 210 1.98 201 2.03 246 2.22 226 2.24 372 3.33 367 3.36
                           374 3.44 377 3.44 326 3.54 320 3.55
 395  0.249  0.246  0.604- 252 1.74 211 1.93 267 1.94 200 2.07 184 2.12 225 2.30 377 3.40 369 3.40
                           367 3.43 378 3.46 327 3.52 319 3.58
 396  0.417  0.000  0.605- 255 1.79 288 1.80 249 2.00 201 2.00 191 2.26 234 2.26 372 3.34 376 3.36
                           367 3.36 384 3.39 329 3.57 320 3.58
 397  0.415  0.249  0.591- 193 1.85 200 1.90 232 1.96 302 1.99 248 1.99 289 2.31 319 3.32 334 3.37
                           375 3.43 369 3.49 376 3.51 367 3.54
 398  0.416  0.750  0.594- 205 1.90 290 1.95 229 1.95 189 2.00 256 2.04 287 2.05 331 3.38 321 3.39
                           368 3.41 372 3.46 384 3.49 386 3.49
 399  0.756  0.503  0.595- 285 1.83 292 1.93 228 1.96 254 2.00 187 2.04 209 2.13 349 3.35 365 3.41
                           363 3.49 380 3.49 323 3.51 370 3.55
 400  0.751  0.753  0.590- 227 1.83 283 1.87 186 1.97 293 1.98 208 2.02 250 2.41  28 3.12 362 3.31
                           325 3.34 364 3.46 380 3.47 365 3.52 379 3.55
 401  0.754  0.248  0.594- 284 1.84 190 1.94 231 1.97 253 2.00 294 2.01 206 2.14   3 3.04 335 3.34
                           370 3.40 324 3.41 363 3.42 383 3.42 371 3.51
 402  0.749  0.002  0.604- 295 1.80 251 1.80 286 1.99 207 2.02 230 2.21 185 2.27 379 3.36 371 3.40
                           383 3.42 364 3.44 332 3.55 322 3.56
 403  0.083  0.248  0.604- 301 1.79 296 1.80 203 1.99 211 2.04 196 2.19 237 2.24 378 3.34 315 3.45
                           377 3.48 381 3.49 327 3.52 337 3.52
 404  0.081  0.500  0.603- 300 1.79 298 1.80 198 1.96 214 2.05 195 2.22 236 2.23 373 3.38 381 3.45
                           382 3.45 378 3.47 317 3.47 328 3.60
 405  0.080  0.751  0.603- 313 1.79 305 1.79 199 1.94 212 2.16 235 2.17 194 2.22 373 3.34 366 3.42
                           374 3.43 336 3.47 382 3.57 330 3.60
 406  0.084  0.999  0.604- 304 1.80 299 1.80 202 2.01 210 2.02 192 2.19 238 2.22 315 3.42 374 3.44
                           366 3.45 377 3.45 326 3.51 338 3.52
 407  0.918  0.752  0.603- 261 1.79 307 1.80 199 1.96 283 2.09 217 2.18 240 2.24 365 3.34 366 3.41
                           364 3.47 336 3.49 362 3.59 382 3.59
 408  0.411  0.497  0.593- 204 1.85 188 1.88 233 1.90 303 2.07 247 2.10 291 2.16 318 3.35 368 3.37
                           369 3.42 333 3.50 375 3.54 386 3.59
 409  0.920  0.248  0.603- 281 1.79 260 1.80 203 1.95 284 2.12 242 2.17 153 2.21 363 3.39 315 3.44
                           381 3.45 383 3.47 337 3.48 335 3.59
 410  0.918  0.626  0.506- 240 1.84 218 1.84  75 1.95 273 2.04  83 2.09  64 2.11 317 3.39 336 3.39
                           349 3.42 362 3.43 365 3.46 340 3.54 316 3.59
 411  0.917  0.876  0.507- 239 1.84 217 1.84  77 1.97 274 2.01  70 2.11  63 2.12 362 3.37 336 3.40
                           338 3.40 332 3.41 341 3.58 339 3.59 364 3.90 366 3.96
 412  0.083  0.875  0.507- 192 1.84 235 1.85  77 1.97 183 2.03  60 2.11 143 2.11 330 3.37 336 3.40
                           338 3.41 326 3.43 341 3.58 353 3.59 374 3.87 366 3.99
 413  0.081  0.626  0.505- 236 1.84 194 1.86  75 1.94 278 2.06  59 2.08 142 2.10 336 3.39 317 3.40
                           373 3.41 328 3.43 330 3.43 340 3.52 352 3.58
 414  0.417  0.626  0.501-  57 1.91  80 1.92 189 1.95 146 1.97 272 1.98 233 2.12 321 3.41 356 3.44
                           368 3.44 344 3.44 333 3.46 331 3.46 386 3.46 318 3.48
 415  0.416  0.374  0.501- 145 1.91  81 1.94  58 1.96 232 1.98 270 1.98 188 2.06 343 3.43 318 3.44
                           355 3.44 333 3.45 334 3.47 319 3.48 375 3.48 369 3.49
 416  0.416  0.122  0.503- 234 1.84  76 1.95 144 1.96 197 1.98 193 2.03  68 2.08 320 3.33 329 3.38
                           334 3.46 319 3.47 342 3.48 354 3.50 376 3.69 367 3.88
 417  0.751  0.879  0.503- 185 1.83 274 1.95  52 1.95 297 2.00 227 2.03 151 2.09 332 3.36 322 3.37
                           362 3.48 339 3.48 325 3.48 350 3.50 379 3.73 364 3.96
 418  0.249  0.124  0.507- 226 1.84 184 1.87 181 1.96  76 2.01 152 2.11  51 2.13 319 3.36 326 3.38
                           327 3.39 320 3.40 360 3.58 342 3.60 367 3.76 377 3.96
 419  0.248  0.625  0.503- 278 1.90 224 1.91 215 1.98  69 1.99 155 1.99  80 2.08 318 3.42 328 3.43
                           368 3.44 352 3.45 330 3.46 321 3.48 344 3.51 373 3.62
 420  0.247  0.373  0.503- 225 1.85 277 1.90 154 1.96 213 1.97  65 2.07  81 2.08 369 3.29 327 3.37
                           319 3.42 351 3.44 328 3.45 318 3.46 343 3.53 378 3.72
 421  0.082  0.375  0.506- 237 1.84 195 1.85  74 1.95 277 2.02 141 2.10  61 2.11 337 3.38 328 3.40
                           317 3.42 327 3.46 361 3.54 351 3.58 378 3.61 381 4.00
 422  0.753  0.375  0.503- 275 1.89 187 1.94 231 1.98  54 1.98 149 1.98  82 2.06 370 3.36 349 3.41
                           323 3.42 359 3.45 335 3.45 324 3.50 347 3.51 363 3.65
 423  0.751  0.122  0.505- 230 1.84 190 1.94 276 1.95  79 2.01 148 2.02  55 2.11 332 3.36 322 3.39
                           324 3.43 335 3.46 358 3.53 346 3.54 371 3.79 383 3.96
 424  0.417  0.877  0.504- 191 1.85 229 1.96  78 1.97 271 1.98  56 1.99 147 2.09 329 3.38 320 3.40
                           331 3.41 321 3.42 345 3.51 357 3.51 372 3.56 384 3.73
 425  0.249  0.879  0.502- 246 1.83 183 1.93  89 1.94  78 2.00 223 2.07 156 2.07 326 3.37 320 3.38
                           353 3.47 330 3.48 321 3.48 345 3.49 372 3.63 374 3.99
 426  0.583  0.123  0.505- 222 1.84 216 1.94  79 1.96 197 1.99  92 2.02  71 2.09 322 3.37 334 3.39
                           329 3.40 324 3.41 354 3.53 346 3.53 376 3.62 371 3.74
 427  0.584  0.627  0.501-  87 1.91 245 1.93  90 1.94 272 1.97  91 1.99 219 2.08 386 3.37 325 3.39
                           380 3.39 331 3.42 348 3.43 356 3.44 333 3.45 323 3.48
 428  0.584  0.373  0.502- 221 1.90  82 1.94 158 1.94 270 1.99  88 2.02 244 2.06 375 3.40 334 3.41
                           324 3.43 333 3.43 370 3.45 347 3.46 323 3.46 355 3.47
 429  0.918  0.374  0.506- 153 1.84 243 1.85  74 1.94 275 2.05  67 2.09  84 2.10 337 3.40 317 3.41
                           349 3.41 335 3.43 363 3.53 361 3.54 359 3.59 381 4.00
 430  0.918  0.125  0.507- 182 1.84 242 1.85  72 1.97 276 2.01  66 2.11  85 2.12 335 3.37 338 3.40
                           332 3.41 337 3.41 385 3.57 358 3.59 383 3.92 315 3.93
 431  0.584  0.876  0.506- 241 1.84 220 1.92 297 1.97 271 1.99  86 2.06  73 2.11 325 3.37 331 3.37
                           322 3.39 329 3.40 350 3.55 357 3.57 379 3.60 384 3.67
 432  0.752  0.625  0.502- 273 1.90 228 1.96 186 1.96  53 1.97 150 1.99  90 2.06 380 3.40 349 3.42
[...]
  273            m_sumb_d                              0.395789                       42   5
  274          m_sumb_d                              0.000688                          7   4
  275        setdij_                               5.196946                          140   3
  276          m_sumb_d                              1.234780                        140   4
  277        set_dd_magatom                        0.000020                            7   3
  278        set_dd_paw                            0.083476                            7   3
  279          set_rsgf_all                          0.000017                          7   4
  280          m_sumb_d                              0.081733                         49   4
  281        strkin                                0.039092                            7   3
  282          m_sumb_d                              0.002089                          7   4
  283        strelo                                0.039990                            7   3
  284          m_sumb_d                              0.003242                         14   4
  285        strnlr                               47.829870                            7   3
  286          rspher_all                            2.234153                         63   4
  287          phaser                                0.000037                         63   4
  288          rpro_isp                             45.036330                         63   4
  289            fftwav_mpi                           34.296735                     8820   5
  290              fft3d_mpi                            30.717747                   8820   6
  291                fftbrc_mpi                           26.267823                 8820   7
  292                  fftbas_plan_mpi                      26.238677               8820   8
  293                    dfftw_execute                        13.285231            26460   9
  294                    map_forward                           7.476637            17640   9
  295                      map_gather                            0.752367           8820  10
  296                      m_alltoallv_z                         2.753064           8820  10
  297                      map_scatter                           1.597546           8820  10
  298            rpromu                               10.666010                     2205   5
  299              rpromu_gemm                           3.373069                 502740   6
  300              m_sumb_d                              1.232605                   8820   6
  301          m_sumb_d                              0.412496                          7   4
  302        m_sumb_d                              0.028534                           49   3
  303        fft3d_mpi                             3.899973                          497   3
  304          fftbrc_mpi                            3.775638                        497   4
  305            fftbas_plan_mpi                       3.773821                      497   5
  306              dfftw_execute                         0.615762                   1491   6
  307              map_forward                           1.403544                    490   6
  308                map_gather                            0.031203                  245   7
  309                m_alltoallv_z                         1.221873                  245   7
  310                map_scatter                           0.145904                  245   7
  311              map_backward                          1.399654                    504   6
  312                map_gather                            0.119306                  252   7
  313                m_alltoallv_z                         1.207485                  252   7
  314                map_scatter                           0.068080                  252   7
  315        ggaall_grid                           1.334906                            7   3
  316        forhar                                2.877551                            7   3
  317          m_sumb_d                              0.057431                          7   4
  318        strehar                               0.042036                            7   3
  319          m_sumb_d                              0.002492                          7   4
  320        m_bcast_d                             0.004903                           14   3
  321      potlok                               72.555355                             13   2
  322        fft3d_mpi                            27.540714                         2741   3
  323          fftbrc_mpi                           26.854105                       2741   4
  324            fftbas_plan_mpi                      26.844573                     2741   5
  325              dfftw_execute                         3.487168                   8223   6
  326              map_forward                          10.607202                   2754   6
  327                map_gather                            0.180515                 1390   7
  328                m_alltoallv_z                         9.578466                 1390   7
  329                map_scatter                           0.823300                 1390   7
  330              map_backward                         10.794000                   2728   6
  331                map_gather                            0.671314                 1364   7
  332                m_alltoallv_z                         9.726936                 1364   7
  333                map_scatter                           0.369974                 1364   7
  334        ggaall_grid                          19.126201                          237   3
  335        m_sumb_d                              0.347792                         1224   3
  336        fewald                                0.018902                           26   3
  337          rsp                                   0.017460                         26   4
  338          rcp                                   0.001228                         26   4
  339        pothar                                0.022073                           13   3
  340          m_sumb_d                              0.015793                         13   4
  341        m_bcast_d                             0.050134                           13   3
  342      potlok_metagga                        0.000016                             13   2
  343      set_dd_magatom                        0.000007                              7   2
  344      set_dd_paw                            0.157998                             13   2
  345        set_rsgf_all                          0.000029                           13   3
  346        m_sumb_d                              0.154672                           91   3
  347      m_sumb_d                             56.076876                           3518   2
  348      wavpre_noio                           1.651397                              6   2
  349        stufak                                1.570035                            6   3
  350      eddiag                              133.213439                              6   2
  351        overl                                 0.008139                            6   3
  352        redis_proj                            0.712487                           18   3
  353          m_alltoall_d                          0.705190                       2520   4
  354        fftwav_mpi                            3.308198                          840   3
  355          fft3d_mpi                             2.962223                        840   4
  356            fftbrc_mpi                            2.514892                      840   5
  357              fftbas_plan_mpi                       2.512102                    840   6
  358                dfftw_execute                         1.271518                 2520   7
  359                map_forward                           0.739839                 1680   7
  360                  map_gather                            0.076130                840   8
  361                  m_alltoallv_z                         0.268600                840   8
  362                  map_scatter                           0.155505                840   8
  363        hamilt_local                          2.987292                          840   3
  364          vhamil                                0.391496                        840   4
  365          kinhamil                              2.588841                        840   4
  366            fftext_mpi                            2.559934                      840   5
  367              fft3d_mpi                             2.503439                    840   6
  368                fftbrc_mpi                            2.115459                  840   7
  369                  fftbas_plan_mpi                       2.112567                840   8
  370                    dfftw_execute                         1.099137             2520   9
  371                    map_backward                          0.518510             1680   9
  372                      map_gather                            0.136127            840  10
  373                      m_alltoallv_z                         0.251002            840  10
  374                      map_scatter                           0.117443            840  10
  375        redis_pw                              1.732919                          846   3
  376          m_alltoall_d                          1.672905                       2520   4
  377        orth1                                 1.744310                          420   3
  378        m_sumb_d                              1.293364                            6   3
  379        shift_bands_between_low_high          0.000009                            6   3
  380        lincom                                1.831537                            6   3
 
 Flat profile
 ============
 
             routine name                   CPU           calls
 ---------------------------------------------------------------
 edwav                                3249.661156         304
 potlok                                565.937757         317
 total_time                            490.710700           1
 m_alltoall_d                          329.142655      739340
 m_sumb_d                              289.450335      316226
 dfftw_execute                         262.781767      555684
 lincom                                242.689185         932
 eddiag                                228.911346         165
 m_alltoallv_z                         214.269063      185856
 orth1                                 151.996134       43960
 fftbas_plan_mpi                       118.478061      185228
 choleski                              108.765766         311
 fft3d_mpi                              85.614043      185228
 ggaall_grid                            78.473411         548
 fftwav_mpi                             45.886302      114787
 eccp                                   40.802392       85120
 map_scatter                            38.173367      185856
 racc0                                  31.969608       21280
 map_forward                            31.615024      255332
 rpro1                                  30.273759       21280
 map_gather                             24.728009      185856
 pw_charge                              16.107382       36387
 setdij_                                14.440524         500
 force_and_stress                       12.622758           7
 m_bcast_z                              11.212206        2381
 vhamil                                 10.790663       23100
 augmentation_charge                     9.890000         311
 rpromu                                  8.749748        3185
 w1_dscal                                6.849789       21280
 rpromu_gemm                             4.850023      726180
 redis_pw                                4.692334       87727
 rspher_all                              3.212235          92
 orthch                                  3.111525         311
 fftext_mpi                              3.105691       44380
 forhar                                  2.820120           7
 forloc                                  2.810980           7
 redis_proj                              2.182249       67244
 stufak                                  1.833738           7
 m_bcast_d                               1.598314         347
 overl                                   1.343795       21908
 elmin_all                               1.285819           7
 map_backward                            0.951767      115124
 kinhamil                                0.758925       23100
 soft_charge                             0.708675         311
 fftbrc_mpi                              0.599759      185228
 densta                                  0.589250         312
 rsp                                     0.485002         641
 depsum                                  0.350015         311
 hamilt_local                            0.184983       23100
 pothar                                  0.152369         317
 strnlr                                  0.146853           7
 rpro_isp                                0.130495          91
 set_dd_paw                              0.107281         324
 set_charge                              0.086480         311
 wavpre_noio                             0.081362           6
 fewald                                  0.058979         641
 fft_gq                                  0.050939         311
 fornlr                                  0.039661           7
 strehar                                 0.039544           7
 strkin                                  0.037003           7
 strelo                                  0.036748           7
 rcp                                     0.036315         641
 redis_pw_all                            0.002065         304
 fordep                                  0.001574           7
 redis_pw_over_bands                     0.001227         317
 brgrid                                  0.000813           1
 set_rsgf_all                            0.000743         324
 potlok_metagga                          0.000372         317
 crpa_reader                             0.000270           1
 phaser                                  0.000182         243
 vectorpot                               0.000149           1
 rotate_active_occupied_orbital          0.000094           7
 proall                                  0.000092           7
 set_dd_magatom                          0.000027          14
 shift_bands_between_low_high            0.000019          13
 ---------------------------------------------------------------
  summed up times    6789.47976517677     
 
 Accumulative profile
 ====================
 
             routine name                   CPU           calls
 ---------------------------------------------------------------
 total_time                           6787.067872           1
 elmin_all                            5904.195096           7
 edwav                                4683.089683         304
 potlok                                873.606470         317
 fft3d_mpi                             774.798967      185228
 fftbrc_mpi                            689.184924      185228
 fftbas_plan_mpi                       688.585165      185228
 fftwav_mpi                            454.178299      114787
 orthch                                365.923019         311
 eddiag                                353.702105         165
 m_alltoall_d                          329.142655      739340
 m_sumb_d                              289.450335      316226
 dfftw_execute                         262.781767      555684
 lincom                                242.689185         932
 m_alltoallv_z                         214.269063      185856
 map_forward                           194.568916      255332
 set_charge                            182.818962         311
 redis_proj                            172.581469       67244
 soft_charge                           168.209831         311
 redis_pw                              163.435769       87727
 orth1                                 151.996134       43960
 fftext_mpi                            134.548152       44380
 map_backward                          115.168315      115124
 choleski                              108.765766         311
 force_and_stress                       94.520377           7
 hamilt_local                           81.589758       23100
 ggaall_grid                            78.473411         548
 kinhamil                               70.614112       23100
 rpro_isp                               65.083630          91
 strnlr                                 47.829870           7
 eccp                                   46.469931       85120
 racc0                                  42.960589       21280
 map_scatter                            38.173367      185856
 rpro1                                  35.082460       21280
 redis_pw_over_bands                    26.564495         317
 redis_pw_all                           26.563268         304
 map_gather                             24.728009      185856
 setdij_                                19.684630         500
 pw_charge                              16.107382       36387
 fornlr                                 16.041051           7
 rpromu                                 15.399076        3185
 augmentation_charge                    13.929185         311
 m_bcast_z                              11.212206        2381
 vhamil                                 10.790663       23100
 w1_dscal                                6.849789       21280
 densta                                  5.098770         312
 proall                                  5.043924           7
 rpromu_gemm                             4.850023      726180
 set_dd_paw                              4.135243         324
 rspher_all                              3.212235          92
 forloc                                  2.891782           7
 forhar                                  2.877551           7
 stufak                                  1.833738           7
 fft_gq                                  1.680356         311
 wavpre_noio                             1.651397           6
 m_bcast_d                               1.598314         347
 fordep                                  1.587489           7
 overl                                   1.343795       21908
 fewald                                  0.797066         641
 depsum                                  0.593465         311
 pothar                                  0.561509         317
 rsp                                     0.485002         641
 strehar                                 0.042036           7
 strelo                                  0.039990           7
 strkin                                  0.039092           7
 rcp                                     0.036315         641
 brgrid                                  0.000813           1
 set_rsgf_all                            0.000743         324
 potlok_metagga                          0.000372         317
 crpa_reader                             0.000270           1
 phaser                                  0.000182         243
 vectorpot                               0.000149           1
 rotate_active_occupied_orbital          0.000094           7
 set_dd_magatom                          0.000027          14
 shift_bands_between_low_high            0.000019          13
 ---------------------------------------------------------------
 
Profiling took   4.817609  1.644956  0.007645  0.006929 seconds
Profiling took   5.466002 seconds
