 vasp.6.3.2 27Jun22 (build Apr 26 2023 23:36:10) complex                        
  
 executed on           IFC15_impi date 2023.06.14  02:25:43
 running    4 mpi-ranks, with    1 threads/rank
 distrk:  each k-point on    4 cores,    1 groups
 distr:  one band on NCORE=   4 cores,    1 groups


--------------------------------------------------------------------------------------------------------


 INCAR:
   ENCUT = 500.000000
   SIGMA = 0.010000
   EDIFF = 1.00e-05
   ALGO = A
   ISMEAR = 0
   NELM = 200
   NSW = 500
   NCORE = 8
   LCHARG = .FALSE.
   LWAVE = .FALSE.
   LREAL = Auto
   IBRION = 2
   EDIFFG = -0.02
   GGA = BF
   LUSE_VDW = .TRUE.
   ZAB_VDW = -1.8867
   LBEEFENS = .TRUE.

 POTCAR:    PAW_PBE C 08Apr2002                   
 POTCAR:    PAW_PBE O 08Apr2002                   
 -----------------------------------------------------------------------------
|                                                                             |
|               ----> ADVICE to this user running VASP <----                  |
|                                                                             |
|     You have switched on vdW-DFT.                                           |
|     This routine was written and supplied by Jiri Klimes. We recommend      |
|     that you carefully read and cite the following publications:            |
|       J. Klimes, D.R. Bowler, A. Michelides                                 |
|          J. Phys.: Cond Matt. 22 022201 (2010)                              |
|       J. Klimes, D.R. Bowler, A. Michelides                                 |
|          Phys. Rev. B. 83, 195131 (2011)                                    |
|     and references therein.                                                 |
|                                                                             |
 -----------------------------------------------------------------------------

 POTCAR:    PAW_PBE C 08Apr2002                   
   SHA256 =  253f7b50bb8d59471dbedb8285d89021f4a42ed1a2c5d38a03a736e69125dd95 C/POTCAR              
   COPYR  = (c) Copyright 08Apr2002 Georg Kresse                                                    
   COPYR  = This file is part of the software VASP. Any use, copying, and all other rights are regul
   COPYR  = If you do not have a valid VASP license, you may not use, copy or distribute this file. 
   VRHFIN =C: s2p2                                                                                  
   LEXCH  = PE                                                                                      
   EATOM  =   147.1560 eV,   10.8157 Ry                                                             
                                                                                                    
   TITEL  = PAW_PBE C 08Apr2002                                                                     
   LULTRA =        F    use ultrasoft PP ?                                                          
   IUNSCR =        1    unscreen: 0-lin 1-nonlin 2-no                                               
   RPACOR =    1.200    partial core radius                                                         
   POMASS =   12.011; ZVAL   =    4.000    mass and valenz                                          
   RCORE  =    1.500    outmost cutoff radius                                                       
   RWIGS  =    1.630; RWIGS  =    0.863    wigner-seitz radius (au A)                               
   ENMAX  =  400.000; ENMIN  =  300.000 eV                                                          
   ICORE  =        2    local potential                                                             
   LCOR   =        T    correct aug charges                                                         
   LPAW   =        T    paw PP                                                                      
   EAUG   =  644.873                                                                                
   DEXC   =    0.000                                                                                
   RMAX   =    1.529    core radius for proj-oper                                                   
   RAUG   =    1.300    factor for augmentation sphere                                              
   RDEP   =    1.501    radius for radial grids                                                     
   RDEPT  =    1.300    core radius for aug-charge                                                  
                                                                                                    
   Atomic configuration                                                                             
    4 entries                                                                                       
     n  l   j            E        occ.                                                              
     1  0  0.50      -273.3789   2.0000                                                             
     2  0  0.50       -13.7508   2.0000                                                             
     2  1  0.50        -5.2854   2.0000                                                             
     3  2  1.50        -5.4423   0.0000                                                             
   Description                                                                                      
     l       E           TYP  RCUT    TYP  RCUT                                                     
     0    -13.7508458     23  1.200                                                                 
     0     -8.2022199     23  1.200                                                                 
     1     -5.2854383     23  1.500                                                                 
     1     34.0145650     23  1.500                                                                 
     2     -5.4423304      7  1.500                                                                 
  local pseudopotential read in
  partial core-charges read in
  partial kinetic energy density read in
  atomic valenz-charges read in
  non local Contribution for L=           0  read in
    real space projection operators read in
  non local Contribution for L=           0  read in
    real space projection operators read in
  non local Contribution for L=           1  read in
    real space projection operators read in
  non local Contribution for L=           1  read in
    real space projection operators read in
    PAW grid and wavefunctions read in
 
   number of l-projection  operators is LMAX  =           4
   number of lm-projection operators is LMMAX =           8
 
 POTCAR:    PAW_PBE O 08Apr2002                   
   SHA256 =  818f92134a0a090dccd8ba1447fa70422a3b330e708bb4f08108d8ae51209ddf O/POTCAR              
   COPYR  = (c) Copyright 08Apr2002 Georg Kresse                                                    
   COPYR  = This file is part of the software VASP. Any use, copying, and all other rights are regul
   COPYR  = If you do not have a valid VASP license, you may not use, copy or distribute this file. 
   VRHFIN =O: s2p4                                                                                  
   LEXCH  = PE                                                                                      
   EATOM  =   432.3788 eV,   31.7789 Ry                                                             
                                                                                                    
   TITEL  = PAW_PBE O 08Apr2002                                                                     
   LULTRA =        F    use ultrasoft PP ?                                                          
   IUNSCR =        1    unscreen: 0-lin 1-nonlin 2-no                                               
   RPACOR =    1.200    partial core radius                                                         
   POMASS =   16.000; ZVAL   =    6.000    mass and valenz                                          
   RCORE  =    1.520    outmost cutoff radius                                                       
   RWIGS  =    1.550; RWIGS  =    0.820    wigner-seitz radius (au A)                               
   ENMAX  =  400.000; ENMIN  =  300.000 eV                                                          
   ICORE  =        2    local potential                                                             
   LCOR   =        T    correct aug charges                                                         
   LPAW   =        T    paw PP                                                                      
   EAUG   =  605.392                                                                                
   DEXC   =    0.000                                                                                
   RMAX   =    1.553    core radius for proj-oper                                                   
   RAUG   =    1.300    factor for augmentation sphere                                              
   RDEP   =    1.550    radius for radial grids                                                     
   RDEPT  =    1.329    core radius for aug-charge                                                  
                                                                                                    
   Atomic configuration                                                                             
    4 entries                                                                                       
     n  l   j            E        occ.                                                              
     1  0  0.50      -514.6923   2.0000                                                             
     2  0  0.50       -23.9615   2.0000                                                             
     2  1  0.50        -9.0305   4.0000                                                             
     3  2  1.50        -9.5241   0.0000                                                             
   Description                                                                                      
     l       E           TYP  RCUT    TYP  RCUT                                                     
     0    -23.9615318     23  1.200                                                                 
     0     -9.5240782     23  1.200                                                                 
     1     -9.0304911     23  1.520                                                                 
     1      8.1634956     23  1.520                                                                 
     2     -9.5240782      7  1.500                                                                 
  local pseudopotential read in
  partial core-charges read in
  partial kinetic energy density read in
  kinetic energy density of atom read in
  atomic valenz-charges read in
  non local Contribution for L=           0  read in
    real space projection operators read in
  non local Contribution for L=           0  read in
    real space projection operators read in
  non local Contribution for L=           1  read in
    real space projection operators read in
  non local Contribution for L=           1  read in
    real space projection operators read in
    PAW grid and wavefunctions read in
 
   number of l-projection  operators is LMAX  =           4
   number of lm-projection operators is LMMAX =           8
 
 -----------------------------------------------------------------------------
|                                                                             |
|               ----> ADVICE to this user running VASP <----                  |
|                                                                             |
|     You have a (more or less) 'small supercell' and for smaller cells       |
|     it is recommended to use the reciprocal-space projection scheme!        |
|     The real-space optimization is not efficient for small cells and it     |
|     is also less accurate ...                                               |
|     Therefore, set LREAL=.FALSE. in the INCAR file.                         |
|                                                                             |
 -----------------------------------------------------------------------------

 Optimization of the real space projectors (new method)

 maximal supplied QI-value         = 25.13
 optimisation between [QCUT,QGAM] = [ 11.31, 22.87] = [ 35.82,146.48] Ry 
 Optimized for a Real-space Cutoff    1.00 Angstroem

   l    n(q)    QCUT    max X(q) W(low)/X(q) W(high)/X(q)  e(spline) 
   0      7    11.310   115.676    0.43E-03    0.13E-02    0.19E-06
   0      7    11.310    87.132    0.43E-03    0.13E-02    0.18E-06
   1      6    11.310     4.429    0.42E-03    0.74E-03    0.11E-06
   1      6    11.310     2.733    0.34E-03    0.55E-03    0.92E-07
 Optimization of the real space projectors (new method)

 maximal supplied QI-value         = 24.76
 optimisation between [QCUT,QGAM] = [ 11.39, 22.77] = [ 36.31,145.25] Ry 
 Optimized for a Real-space Cutoff    1.00 Angstroem

   l    n(q)    QCUT    max X(q) W(low)/X(q) W(high)/X(q)  e(spline) 
   0      7    11.387    20.381    0.39E-03    0.13E-02    0.15E-06
   0      7    11.387    15.268    0.42E-03    0.14E-02    0.17E-06
   1      6    11.387     5.964    0.41E-03    0.11E-02    0.17E-06
   1      6    11.387     5.382    0.39E-03    0.87E-03    0.15E-06
 -----------------------------------------------------------------------------
|                                                                             |
|               ----> ADVICE to this user running VASP <----                  |
|                                                                             |
|     You enforced a specific xc type in the INCAR file but a different       |
|     type was found in the POTCAR file.                                      |
|     I HOPE YOU KNOW WHAT YOU ARE DOING!                                     |
|                                                                             |
 -----------------------------------------------------------------------------

  PAW_PBE C 08Apr2002                   :
 energy of atom  1       EATOM= -147.1560
 kinetic energy error for atom=    0.0076 (will be added to EATOM!!)
  PAW_PBE O 08Apr2002                   :
 energy of atom  2       EATOM= -432.3788
 kinetic energy error for atom=    0.0224 (will be added to EATOM!!)
 
 
 POSCAR: CO
  positions in cartesian coordinates
  No initial velocities read in
 exchange correlation table for  LEXCH =       17
   RHO(1)=    0.500       N(1)  =     2000
   RHO(2)=  100.500       N(2)  =     4000
 


--------------------------------------------------------------------------------------------------------


 ion  position               nearest neighbor table
   1  0.813  0.383  0.499-   2 1.14
   2  0.813  0.383  0.538-   1 1.14
 
  LATTYP: Found a simple orthorhombic cell.
 ALAT       =    14.1335345898
 B/A-ratio  =     1.2247448714
 C/A-ratio  =     2.0632554053
  
  Lattice vectors:
  
 A1 = (  14.1335345898,   0.0000000000,   0.0000000000)
 A2 = (   0.0000000000,  17.3099740034,   0.0000000000)
 A3 = (   0.0000000000,   0.0000000000,  29.1610916380)


Analysis of symmetry for initial positions (statically):
=====================================================================
 Subroutine PRICEL returns:
 Original cell was already a primitive cell.
 

 Routine SETGRP: Setting up the symmetry group for a 
 simple orthorhombic supercell.


 Subroutine GETGRP returns: Found  4 space group operations
 (whereof  1 operations were pure point group operations)
 out of a pool of  8 trial point group operations.


The static configuration has the point symmetry C_1 .
 The point group associated with its full space group is C_2v.


Analysis of symmetry for dynamics (positions and initial velocities):
=====================================================================
 Subroutine PRICEL returns:
 Original cell was already a primitive cell.
 

 Routine SETGRP: Setting up the symmetry group for a 
 simple orthorhombic supercell.


 Subroutine GETGRP returns: Found  4 space group operations
 (whereof  1 operations were pure point group operations)
 out of a pool of  8 trial point group operations.


The dynamic configuration has the point symmetry C_1 .
 The point group associated with its full space group is C_2v.


 Subroutine INISYM returns: Found  4 space group operations
 (whereof  1 operations are pure point group operations),
 and found     1 'primitive' translations


----------------------------------------------------------------------------------------

                                     Primitive cell                                     

  volume of cell :    7134.2936

  direct lattice vectors                    reciprocal lattice vectors
    14.133534590  0.000000000  0.000000000     0.070753709  0.000000000  0.000000000
     0.000000000 17.309974003  0.000000000     0.000000000  0.057770162  0.000000000
     0.000000000  0.000000000 29.161091638     0.000000000  0.000000000  0.034292269

  length of vectors
    14.133534590 17.309974003 29.161091638     0.070753709  0.057770162  0.034292269

  position of ions in fractional coordinates (direct lattice)
     0.812747861  0.383131713  0.499170329
     0.812747861  0.383131713  0.538263515

  ion indices of the primitive-cell ions
   primitive index   ion index
                 1           1
                 2           2

----------------------------------------------------------------------------------------

 
 
 KPOINTS: KPOINTS created by Atomic Simulation Env

Automatic generation of k-mesh.
 Grid dimensions read from file:
 generate k-points for:    1    1    1

 Generating k-lattice:

  Cartesian coordinates                     Fractional coordinates (reciprocal lattice)
     0.070753709  0.000000000  0.000000000     1.000000000  0.000000000  0.000000000
     0.000000000  0.057770162  0.000000000     0.000000000  1.000000000  0.000000000
     0.000000000  0.000000000  0.034292269     0.000000000  0.000000000  1.000000000

  Length of vectors
     0.070753709  0.057770162  0.034292269

  Shift w.r.t. Gamma in fractional coordinates (k-lattice)
     0.000000000  0.000000000  0.000000000

 
 Subroutine IBZKPT returns following result:
 ===========================================
 
 Found      1 irreducible k-points:
 
 Following reciprocal coordinates:
            Coordinates               Weight
  0.000000  0.000000  0.000000      1.000000
 
 Following cartesian coordinates:
            Coordinates               Weight
  0.000000  0.000000  0.000000      1.000000
 


--------------------------------------------------------------------------------------------------------




 Dimension of arrays:
   k-points           NKPTS =      1   k-points in BZ     NKDIM =      1   number of bands    NBANDS=      9
   number of dos      NEDOS =    301   number of ions     NIONS =      2
   non local maximal  LDIM  =      4   non local SUM 2l+1 LMDIM =      8
   total plane-waves  NPLWV = ******
   max r-space proj   IRMAX =    780   max aug-charges    IRDMAX=   2434
   dimension x,y,z NGX =    80 NGY =   96 NGZ =  160
   dimension x,y,z NGXF=   160 NGYF=  192 NGZF=  320
   support grid    NGXF=   160 NGYF=  192 NGZF=  320
   ions per type =               1   1
   NGX,Y,Z   is equivalent  to a cutoff of   9.41,  9.22,  9.12 a.u.
   NGXF,Y,Z  is equivalent  to a cutoff of  18.82, 18.44, 18.24 a.u.

 SYSTEM =  unknown system                          
 POSCAR =  CO                                      

 Startparameter for this run:
   NWRITE =      2    write-flag & timer
   PREC   = normal    normal or accurate (medium, high low for compatibility)
   ISTART =      0    job   : 0-new  1-cont  2-samecut
   ICHARG =      2    charge: 1-file 2-atom 10-const
   ISPIN  =      1    spin polarized calculation?
   LNONCOLLINEAR =      F non collinear calculations
   LSORBIT =      F    spin-orbit coupling
   INIWAV =      1    electr: 0-lowe 1-rand  2-diag
   LASPH  =      F    aspherical Exc in radial PAW
 Electronic Relaxation 1
   ENCUT  =  500.0 eV  36.75 Ry    6.06 a.u.  25.77 31.56 53.17*2*pi/ulx,y,z
   ENINI  =  500.0     initial cutoff
   ENAUG  =  644.9 eV  augmentation charge cutoff
   NELM   =    200;   NELMIN=  2; NELMDL= -5     # of ELM steps 
   EDIFF  = 0.1E-04   stopping-criterion for ELM
   LREAL  =      T    real-space projection
   NLSPLINE    = F    spline interpolate recip. space projectors
   LCOMPAT=      F    compatible to vasp.4.4
   GGA_COMPAT  = T    GGA compatible to vasp.4.4-vasp.4.6
   LMAXPAW     = -100 max onsite density
   LMAXMIX     =    2 max onsite mixed and CHGCAR
   VOSKOWN=      0    Vosko Wilk Nusair interpolation
   ROPT   =   -0.00050  -0.00050
 Ionic relaxation
   EDIFFG = -.2E-01   stopping-criterion for IOM
   NSW    =    500    number of steps for IOM
   NBLOCK =      1;   KBLOCK =    500    inner block; outer block 
   IBRION =      2    ionic relax: 0-MD 1-quasi-New 2-CG
   NFREE  =      1    steps in history (QN), initial steepest desc. (CG)
   ISIF   =      2    stress and relaxation
   IWAVPR =     11    prediction:  0-non 1-charg 2-wave 3-comb
   ISYM   =      2    0-nonsym 1-usesym 2-fastsym
   LCORR  =      T    Harris-Foulkes like correction to forces

   POTIM  = 0.5000    time-step for ionic-motion
   TEIN   =    0.0    initial temperature
   TEBEG  =    0.0;   TEEND  =   0.0 temperature during run
   SMASS  =  -3.00    Nose mass-parameter (am)
   estimated Nose-frequenzy (Omega)   =  0.10E-29 period in steps = 0.13E+47 mass=  -0.456E-26a.u.
   SCALEE = 1.0000    scale energy and forces
   NPACO  =    256;   APACO  = 10.0  distance and # of slots for P.C.
   PSTRESS=    0.0 pullay stress

  Mass of Ions in am
   POMASS =  12.01 16.00
  Ionic Valenz
   ZVAL   =   4.00  6.00
  Atomic Wigner-Seitz radii
   RWIGS  =  -1.00 -1.00
  virtual crystal weights 
   VCA    =   1.00  1.00
   NELECT =      10.0000    total number of electrons
   NUPDOWN=      -1.0000    fix difference up-down

 DOS related values:
   EMIN   =  10.00;   EMAX   =-10.00  energy-range for DOS
   EFERMI =   0.00
   ISMEAR =     0;   SIGMA  =   0.01  broadening in eV -4-tet -1-fermi 0-gaus

 Electronic relaxation 2 (details)
   IALGO  =     58    algorithm
   LDIAG  =      T    sub-space diagonalisation (order eigenvalues)
   LSUBROT=      F    optimize rotation matrix (better conditioning)
   TURBO    =      0    0=normal 1=particle mesh
   IRESTART =      0    0=no restart 2=restart with 2 vectors
   NREBOOT  =      0    no. of reboots
   NMIN     =      0    reboot dimension
   EREF     =   0.00    reference energy to select bands
   IMIX   =      4    mixing-type and parameters
     AMIX     =   0.40;   BMIX     =  1.00
     AMIX_MAG =   1.60;   BMIX_MAG =  1.00
     AMIN     =   0.10
     WC   =   100.;   INIMIX=   1;  MIXPRE=   1;  MAXMIX= -45

 Intra band minimization:
   WEIMIN = 0.0010     energy-eigenvalue tresh-hold
   EBREAK =  0.28E-06  absolut break condition
   DEPER  =   0.30     relativ break condition  

   TIME   =   0.40     timestep for ELM

  volume/ion in A,a.u.               =    3567.15     24072.29
  Fermi-wavevector in a.u.,A,eV,Ry     =   0.183214  0.346224  0.456710  0.033567
  Thomas-Fermi vector in A             =   0.912710
 
 Write flags
   LWAVE        =      F    write WAVECAR
   LDOWNSAMPLE  =      F    k-point downsampling of WAVECAR
   LCHARG       =      F    write CHGCAR
   LVTOT        =      F    write LOCPOT, total local potential
   LVHAR        =      F    write LOCPOT, Hartree potential only
   LELF         =      F    write electronic localiz. function (ELF)
   LORBIT       =      0    0 simple, 1 ext, 2 COOP (PROOUT), +10 PAW based schemes


 Dipole corrections
   LMONO  =      F    monopole corrections only (constant potential shift)
   LDIPOL =      F    correct potential (dipole corrections)
   IDIPOL =      0    1-x, 2-y, 3-z, 4-all directions 
   EPSILON=  1.0000000 bulk dielectric constant

 Exchange correlation treatment:
   GGA     =    BF    GGA type
   LEXCH   =    17    internal setting for exchange type
   LIBXC   =     F    Libxc                    
   VOSKOWN =     0    Vosko Wilk Nusair interpolation
   LHFCALC =     F    Hartree Fock is set to
   LHFONE  =     F    Hartree Fock one center treatment
   AEXX    =    0.0000 exact exchange contribution

 vdW DFT:
   LUSE_VDW   =     T    switch on vdW DFT
   Zab_VDW    =******    correlation parameter
   PARAM1     =0.1234
   PARAM2     =1.0000
   PARAM3     =0.0000
   -- rVV10 --
   BPARAM     = 6.3000
   CPARAM     = 0.0093

 Linear response parameters
   LEPSILON=     F    determine dielectric tensor
   LRPA    =     F    only Hartree local field effects (RPA)
   LNABLA  =     F    use nabla operator in PAW spheres
   LVEL    =     F    velocity operator in full k-point grid
   CSHIFT  =0.1000    complex shift for real part using Kramers Kronig
   OMEGAMAX=  -1.0    maximum frequency
   DEG_THRESHOLD= 0.2000000E-02 threshold for treating states as degnerate
   RTIME   =   -0.100 relaxation time in fs
  (WPLASMAI=    0.000 imaginary part of plasma frequency in eV, 0.658/RTIME)
   DFIELD  = 0.0000000 0.0000000 0.0000000 field for delta impulse in time
 
  Optional k-point grid parameters
   LKPOINTS_OPT  =     F    use optional k-point grid
   KPOINTS_OPT_MODE=     1    mode for optional k-point grid
 
 Orbital magnetization related:
   ORBITALMAG=     F  switch on orbital magnetization
   LCHIMAG   =     F  perturbation theory with respect to B field
   DQ        =  0.001000  dq finite difference perturbation B field
   LLRAUG    =     F  two centre corrections for induced B field



--------------------------------------------------------------------------------------------------------


 conjugate gradient relaxation of ions
 charge density and potential will be updated during run
 non-spin polarized calculation
 Conjugate gradient for all bands (Freysoldt, et al. PRB 79, 241103 (2009))
 preconditioned conjugated gradient                                        
 perform sub-space diagonalisation
    before iterative eigenvector-optimisation
 modified Broyden-mixing scheme, WC =      100.0
 initial mixing is a Kerker type mixing with AMIX =  0.4000 and BMIX =      1.0000
 Hartree-type preconditioning will be used
 using additional bands            4
 real space projection scheme for non local part
 use partial core corrections
 no Harris-corrections to forces 
 use gradient corrections 
 use of overlap-Matrix (Vanderbilt PP)
 Gauss-broadening in eV      SIGMA  =   0.01


--------------------------------------------------------------------------------------------------------


  energy-cutoff  :      500.00
  volume of cell :     7134.29
      direct lattice vectors                 reciprocal lattice vectors
    14.133534590  0.000000000  0.000000000     0.070753709  0.000000000  0.000000000
     0.000000000 17.309974003  0.000000000     0.000000000  0.057770162  0.000000000
     0.000000000  0.000000000 29.161091638     0.000000000  0.000000000  0.034292269

  length of vectors
    14.133534590 17.309974003 29.161091638     0.070753709  0.057770162  0.034292269


 
 k-points in units of 2pi/SCALE and weight: KPOINTS created by Atomic Simulation Env
   0.00000000  0.00000000  0.00000000       1.000
 
 k-points in reciprocal lattice and weights: KPOINTS created by Atomic Simulation Env
   0.00000000  0.00000000  0.00000000       1.000
 
 position of ions in fractional coordinates (direct lattice) 
   0.81274786  0.38313171  0.49917033
   0.81274786  0.38313171  0.53826352
 
 position of ions in cartesian coordinates  (Angst):
  11.48700000  6.63200000 14.55635170
  11.48700000  6.63200000 15.69635170
 


--------------------------------------------------------------------------------------------------------


 k-point   1 :   0.0000 0.0000 0.0000  plane waves:  181103

 maximum and minimum number of plane-waves per node :     45283    45271

 maximum number of plane-waves:    181103
 maximum index in each direction: 
   IXMAX=   25   IYMAX=   31   IZMAX=   53
   IXMIN=  -25   IYMIN=  -31   IZMIN=  -53


 real space projection operators:
  total allocation   :         88.88 KBytes
  max/ min on nodes  :         23.25         20.50


 parallel 3D FFT for wavefunctions:
    minimum data exchange during FFTs selected (reduces bandwidth)
 parallel 3D FFT for charge:
    minimum data exchange during FFTs selected (reduces bandwidth)


 total amount of memory used by VASP MPI-rank0   292494. kBytes
=======================================================================

   base      :      30000. kBytes
   nonlr-proj:         52. kBytes
   fftplans  :      92318. kBytes
   grid      :     150558. kBytes
   one-center:          3. kBytes
   wavefun   :      19563. kBytes
 
     INWAV:  cpu time      0.0006: real time      0.0007
 Broyden mixing: mesh for mixing (old mesh)
   NGX = 51   NGY = 63   NGZ =107
  (NGX  =160   NGY  =192   NGZ  =320)
  gives a total of 343791 points

 initial charge density was supplied:
 charge density of overlapping atoms calculated
 number of electron      10.0000000 magnetization 
 keeping initial charge density in first step


--------------------------------------------------------------------------------------------------------


 Maximum index for non-local projection operator          180
 Maximum index for augmentation-charges          557 (set IRDMAX)


--------------------------------------------------------------------------------------------------------


 First call to EWALD:  gamma=   0.092
 Maximum number of real-space cells 4x 3x 2
 Maximum number of reciprocal cells 2x 3x 4

    FEWALD:  cpu time      0.0067: real time      0.0067


--------------------------------------- Iteration      1(   1)  ---------------------------------------


vdW kernel read from vdw_kernel.bindat
  0.0000  0.2424  0.5071  0.7962  1.1119  1.4567  1.8333  2.2446  2.6937  3.1842
  3.7199  4.3049  4.9438  5.6415  6.4036  7.2358  8.1446  9.1372 10.2212 11.4050
 12.6979 14.1099 15.6519 17.3360 19.1751 21.1837 23.3773 25.7729 28.3892 31.2465
 34.3669 37.7748 41.4965 45.5611 50.0000
 
    POTLOK:  cpu time     85.5369: real time     85.5901
    SETDIJ:  cpu time      0.0106: real time      0.0106
    TRIAL :  cpu time      1.7020: real time      1.7455
    CORREC:  cpu time      0.0002: real time      0.0002
    --------------------------------------------
      LOOP:  cpu time     87.2617: real time     87.3604

 eigenvalue-minimisations  :    34
 total energy-change (2. order) : 0.7810610E+02  (-0.1326968E+03)
 number of electron      10.0000000 magnetization 
 augmentation part       10.0000000 magnetization 

 Free energy of the ion-electron system (eV)
  ---------------------------------------------------
  alpha Z        PSCENC =         0.06124749
  Ewald energy   TEWEN  =       214.56071925
  -Hartree energ DENC   =      -673.85443978
  -exchange      EXHF   =         0.00000000
  -V(xc)+E(xc)   XCENC  =        39.66941232
  PAW double counting   =       455.07029581     -457.86403136
  entropy T*S    EENTRO =        -0.00000000
  eigenvalues    EBANDS =       -86.87295681
  atomic energy  EATOM  =       587.33585529
  ---------------------------------------------------
  free energy    TOTEN  =        78.10610220 eV

  energy without entropy =       78.10610220  energy(sigma->0) =       78.10610220


--------------------------------------------------------------------------------------------------------




--------------------------------------- Iteration      1(   2)  ---------------------------------------


    TRIAL :  cpu time      1.7037: real time      1.7039
    CORREC:  cpu time      0.0001: real time      0.0001
    --------------------------------------------
      LOOP:  cpu time      1.7068: real time      1.7071

 eigenvalue-minimisations  :    36
 total energy-change (2. order) :-0.7785824E+02  (-0.7776110E+02)
 number of electron      10.0000000 magnetization 
 augmentation part       10.0000000 magnetization 

 Free energy of the ion-electron system (eV)
  ---------------------------------------------------
  alpha Z        PSCENC =         0.06124749
  Ewald energy   TEWEN  =       214.56071925
  -Hartree energ DENC   =      -673.85443978
  -exchange      EXHF   =         0.00000000
  -V(xc)+E(xc)   XCENC  =        39.66941232
  PAW double counting   =       455.07029581     -457.86403136
  entropy T*S    EENTRO =        -0.00000000
  eigenvalues    EBANDS =      -164.73119489
  atomic energy  EATOM  =       587.33585529
  ---------------------------------------------------
  free energy    TOTEN  =         0.24786412 eV

  energy without entropy =        0.24786412  energy(sigma->0) =        0.24786412


--------------------------------------------------------------------------------------------------------




--------------------------------------- Iteration      1(   3)  ---------------------------------------


    TRIAL :  cpu time      1.6101: real time      1.6102
    CORREC:  cpu time      0.0001: real time      0.0001
    --------------------------------------------
      LOOP:  cpu time      1.6118: real time      1.6128

 eigenvalue-minimisations  :    34
 total energy-change (2. order) :-0.1303315E+02  (-0.1302470E+02)
 number of electron      10.0000000 magnetization 
 augmentation part       10.0000000 magnetization 

 Free energy of the ion-electron system (eV)
  ---------------------------------------------------
  alpha Z        PSCENC =         0.06124749
  Ewald energy   TEWEN  =       214.56071925
  -Hartree energ DENC   =      -673.85443978
  -exchange      EXHF   =         0.00000000
  -V(xc)+E(xc)   XCENC  =        39.66941232
  PAW double counting   =       455.07029581     -457.86403136
  entropy T*S    EENTRO =        -0.00000000
  eigenvalues    EBANDS =      -177.76434640
  atomic energy  EATOM  =       587.33585529
  ---------------------------------------------------
  free energy    TOTEN  =       -12.78528739 eV

  energy without entropy =      -12.78528739  energy(sigma->0) =      -12.78528739


--------------------------------------------------------------------------------------------------------




--------------------------------------- Iteration      1(   4)  ---------------------------------------


    TRIAL :  cpu time      0.9690: real time      0.9690
    CORREC:  cpu time      0.0002: real time      0.0002
    --------------------------------------------
      LOOP:  cpu time      0.9704: real time      0.9718

 eigenvalue-minimisations  :    18
 total energy-change (2. order) :-0.2615002E+00  (-0.2614678E+00)
 number of electron      10.0000000 magnetization 
 augmentation part       10.0000000 magnetization 

 Free energy of the ion-electron system (eV)
  ---------------------------------------------------
  alpha Z        PSCENC =         0.06124749
  Ewald energy   TEWEN  =       214.56071925
  -Hartree energ DENC   =      -673.85443978
  -exchange      EXHF   =         0.00000000
  -V(xc)+E(xc)   XCENC  =        39.66941232
  PAW double counting   =       455.07029581     -457.86403136
  entropy T*S    EENTRO =        -0.00000000
  eigenvalues    EBANDS =      -178.02584665
  atomic energy  EATOM  =       587.33585529
  ---------------------------------------------------
  free energy    TOTEN  =       -13.04678764 eV

  energy without entropy =      -13.04678764  energy(sigma->0) =      -13.04678764


--------------------------------------------------------------------------------------------------------




--------------------------------------- Iteration      1(   5)  ---------------------------------------


    TRIAL :  cpu time      1.3645: real time      1.3646
    CORREC:  cpu time      0.0001: real time      0.0001
    CHARGE:  cpu time      0.6939: real time      0.6940
    --------------------------------------------
      LOOP:  cpu time      2.0601: real time      2.0615

 eigenvalue-minimisations  :    28
 total energy-change (2. order) :-0.1800040E-02  (-0.1800016E-02)
 number of electron      10.0000011 magnetization 
 augmentation part        0.7488027 magnetization 

 Free energy of the ion-electron system (eV)
  ---------------------------------------------------
  alpha Z        PSCENC =         0.06124749
  Ewald energy   TEWEN  =       214.56071925
  -Hartree energ DENC   =      -673.85443978
  -exchange      EXHF   =         0.00000000
  -V(xc)+E(xc)   XCENC  =        39.66941232
  PAW double counting   =       455.07029581     -457.86403136
  entropy T*S    EENTRO =        -0.00000000
  eigenvalues    EBANDS =      -178.02764669
  atomic energy  EATOM  =       587.33585529
  ---------------------------------------------------
  free energy    TOTEN  =       -13.04858768 eV

  energy without entropy =      -13.04858768  energy(sigma->0) =      -13.04858768


--------------------------------------------------------------------------------------------------------




--------------------------------------- Iteration      1(   6)  ---------------------------------------


    POTLOK:  cpu time     81.3745: real time     81.3889
    SETDIJ:  cpu time      0.0086: real time      0.0086
    TRIAL :  cpu time      0.6024: real time      0.6043
    CORREC:  cpu time     87.0148: real time     87.0330
    CHARGE:  cpu time      0.6908: real time      0.6909
    --------------------------------------------
      LOOP:  cpu time    169.6934: real time    169.7290

 eigenvalue-minimisations  :     0
 total energy-change (2. order) : 0.2405934E+01  (-0.1184281E+01)
 number of electron      10.0000010 magnetization 
 augmentation part        0.6876751 magnetization 

 Free energy of the ion-electron system (eV)
  ---------------------------------------------------
  alpha Z        PSCENC =         0.06124749
  Ewald energy   TEWEN  =       214.56071925
  -Hartree energ DENC   =      -728.91550034
  -exchange      EXHF   =         0.00000000
  -V(xc)+E(xc)   XCENC  =        42.81186348
  PAW double counting   =       879.59237127     -882.79321442
  entropy T*S    EENTRO =        -0.00000000
  eigenvalues    EBANDS =      -123.29599602
  atomic energy  EATOM  =       587.33585529
  ---------------------------------------------------
  free energy    TOTEN  =       -10.64265400 eV

  energy without entropy =      -10.64265400  energy(sigma->0) =      -10.64265400


--------------------------------------------------------------------------------------------------------




--------------------------------------- Iteration      1(   7)  ---------------------------------------


    POTLOK:  cpu time     86.5546: real time     86.5691
    SETDIJ:  cpu time      0.0083: real time      0.0083
    TRIAL :  cpu time      0.5889: real time      0.5890
    CORREC:  cpu time     87.1848: real time     87.2023
    CHARGE:  cpu time      0.7089: real time      0.7090
    --------------------------------------------
      LOOP:  cpu time    175.0478: real time    175.0819

 eigenvalue-minimisations  :     0
 total energy-change (2. order) :-0.1200401E+01  (-0.1515110E+00)
 number of electron      10.0000010 magnetization 
 augmentation part        0.6647943 magnetization 

 Free energy of the ion-electron system (eV)
  ---------------------------------------------------
  alpha Z        PSCENC =         0.06124749
  Ewald energy   TEWEN  =       214.56071925
  -Hartree energ DENC   =      -700.53496738
  -exchange      EXHF   =         0.00000000
  -V(xc)+E(xc)   XCENC  =        41.21545699
  PAW double counting   =       856.65629672     -859.63278160
  entropy T*S    EENTRO =        -0.00000000
  eigenvalues    EBANDS =      -151.50488139
  atomic energy  EATOM  =       587.33585529
  ---------------------------------------------------
  free energy    TOTEN  =       -11.84305463 eV

  energy without entropy =      -11.84305463  energy(sigma->0) =      -11.84305463


--------------------------------------------------------------------------------------------------------




--------------------------------------- Iteration      1(   8)  ---------------------------------------


    POTLOK:  cpu time     86.1880: real time     86.2027
    SETDIJ:  cpu time      0.0082: real time      0.0082
    TRIAL :  cpu time      0.5810: real time      0.5810
    CORREC:  cpu time     86.6191: real time     86.6365
    CHARGE:  cpu time      0.7073: real time      0.7074
    --------------------------------------------
      LOOP:  cpu time    174.1059: real time    174.1396

 eigenvalue-minimisations  :     0
 total energy-change (2. order) :-0.1514617E+00  (-0.5137314E-01)
 number of electron      10.0000009 magnetization 
 augmentation part        0.6611189 magnetization 

 Free energy of the ion-electron system (eV)
  ---------------------------------------------------
  alpha Z        PSCENC =         0.06124749
  Ewald energy   TEWEN  =       214.56071925
  -Hartree energ DENC   =      -698.31287049
  -exchange      EXHF   =         0.00000000
  -V(xc)+E(xc)   XCENC  =        41.09998848
  PAW double counting   =       865.79521279     -868.62445626
  entropy T*S    EENTRO =        -0.00000000
  eigenvalues    EBANDS =      -153.91021286
  atomic energy  EATOM  =       587.33585529
  ---------------------------------------------------
  free energy    TOTEN  =       -11.99451631 eV

  energy without entropy =      -11.99451631  energy(sigma->0) =      -11.99451631


--------------------------------------------------------------------------------------------------------




--------------------------------------- Iteration      1(   9)  ---------------------------------------


    POTLOK:  cpu time     85.8148: real time     85.8295
    SETDIJ:  cpu time      0.0084: real time      0.0084
    TRIAL :  cpu time      0.5905: real time      0.5905
    CORREC:  cpu time     85.9738: real time     86.0550
    CHARGE:  cpu time      0.7068: real time      0.7068
    --------------------------------------------
      LOOP:  cpu time    173.0980: real time    173.1952

 eigenvalue-minimisations  :     0
 total energy-change (2. order) :-0.5136540E-01  (-0.1209635E-01)
 number of electron      10.0000009 magnetization 
 augmentation part        0.6616904 magnetization 

 Free energy of the ion-electron system (eV)
  ---------------------------------------------------
  alpha Z        PSCENC =         0.06124749
  Ewald energy   TEWEN  =       214.56071925
  -Hartree energ DENC   =      -698.07471298
  -exchange      EXHF   =         0.00000000
  -V(xc)+E(xc)   XCENC  =        41.09784834
  PAW double counting   =       874.17787835     -876.97251909
  entropy T*S    EENTRO =        -0.00000000
  eigenvalues    EBANDS =      -154.23219835
  atomic energy  EATOM  =       587.33585529
  ---------------------------------------------------
  free energy    TOTEN  =       -12.04588171 eV

  energy without entropy =      -12.04588171  energy(sigma->0) =      -12.04588171


--------------------------------------------------------------------------------------------------------




--------------------------------------- Iteration      1(  10)  ---------------------------------------


    POTLOK:  cpu time     85.4820: real time     85.4969
    SETDIJ:  cpu time      0.0082: real time      0.0082
    TRIAL :  cpu time      0.5955: real time      0.5956
    CORREC:  cpu time     85.7425: real time     85.7604
    CHARGE:  cpu time      0.7069: real time      0.7069
    --------------------------------------------
      LOOP:  cpu time    172.5375: real time    172.5719

 eigenvalue-minimisations  :     0
 total energy-change (2. order) :-0.1208933E-01  (-0.4525638E-02)
 number of electron      10.0000009 magnetization 
 augmentation part        0.6617040 magnetization 

 Free energy of the ion-electron system (eV)
  ---------------------------------------------------
  alpha Z        PSCENC =         0.06124749
  Ewald energy   TEWEN  =       214.56071925
  -Hartree energ DENC   =      -697.78940366
  -exchange      EXHF   =         0.00000000
  -V(xc)+E(xc)   XCENC  =        41.08835006
  PAW double counting   =       877.55991140     -880.35418543
  entropy T*S    EENTRO =        -0.00000000
  eigenvalues    EBANDS =      -154.52046543
  atomic energy  EATOM  =       587.33585529
  ---------------------------------------------------
  free energy    TOTEN  =       -12.05797104 eV

  energy without entropy =      -12.05797104  energy(sigma->0) =      -12.05797104


--------------------------------------------------------------------------------------------------------




--------------------------------------- Iteration      1(  11)  ---------------------------------------


    POTLOK:  cpu time     84.8013: real time     84.8160
    SETDIJ:  cpu time      0.0082: real time      0.0082
    TRIAL :  cpu time      0.5863: real time      0.5863
    CORREC:  cpu time     84.7989: real time     84.8133
    CHARGE:  cpu time      0.7090: real time      0.7090
    --------------------------------------------
      LOOP:  cpu time    170.9062: real time    170.9368

 eigenvalue-minimisations  :     0
 total energy-change (2. order) :-0.4519670E-02  (-0.1743440E-02)
 number of electron      10.0000009 magnetization 
 augmentation part        0.6617842 magnetization 

 Free energy of the ion-electron system (eV)
  ---------------------------------------------------
  alpha Z        PSCENC =         0.06124749
  Ewald energy   TEWEN  =       214.56071925
  -Hartree energ DENC   =      -697.61967789
  -exchange      EXHF   =         0.00000000
  -V(xc)+E(xc)   XCENC  =        41.08168180
  PAW double counting   =       879.26464637     -882.05696446
  entropy T*S    EENTRO =        -0.00000000
  eigenvalues    EBANDS =      -154.68999856
  atomic energy  EATOM  =       587.33585529
  ---------------------------------------------------
  free energy    TOTEN  =       -12.06249071 eV

  energy without entropy =      -12.06249071  energy(sigma->0) =      -12.06249071


--------------------------------------------------------------------------------------------------------




--------------------------------------- Iteration      1(  12)  ---------------------------------------


    POTLOK:  cpu time     83.6600: real time     83.6775
    SETDIJ:  cpu time      0.0083: real time      0.0083
    TRIAL :  cpu time      0.5796: real time      0.5796
    CORREC:  cpu time     83.3383: real time     83.3529
    CHARGE:  cpu time      0.7074: real time      0.7075
    --------------------------------------------
      LOOP:  cpu time    168.2965: real time    168.3296

 eigenvalue-minimisations  :     0
 total energy-change (2. order) :-0.1739883E-02  (-0.6554618E-03)
 number of electron      10.0000009 magnetization 
 augmentation part        0.6618725 magnetization 

 Free energy of the ion-electron system (eV)
  ---------------------------------------------------
  alpha Z        PSCENC =         0.06124749
  Ewald energy   TEWEN  =       214.56071925
  -Hartree energ DENC   =      -697.50822317
  -exchange      EXHF   =         0.00000000
  -V(xc)+E(xc)   XCENC  =        41.07476781
  PAW double counting   =       879.80606285     -882.59887986
  entropy T*S    EENTRO =        -0.00000000
  eigenvalues    EBANDS =      -154.79578025
  atomic energy  EATOM  =       587.33585529
  ---------------------------------------------------
  free energy    TOTEN  =       -12.06423059 eV

  energy without entropy =      -12.06423059  energy(sigma->0) =      -12.06423059


--------------------------------------------------------------------------------------------------------




--------------------------------------- Iteration      1(  13)  ---------------------------------------


    POTLOK:  cpu time     81.9760: real time     81.9933
    SETDIJ:  cpu time      0.0083: real time      0.0083
    TRIAL :  cpu time      0.5849: real time      0.5849
    CORREC:  cpu time     82.3667: real time     82.3816
    CHARGE:  cpu time      0.7068: real time      0.7069
    --------------------------------------------
      LOOP:  cpu time    165.6451: real time    165.6790

 eigenvalue-minimisations  :     0
 total energy-change (2. order) :-0.6547780E-03  (-0.1973747E-03)
 number of electron      10.0000009 magnetization 
 augmentation part        0.6618490 magnetization 

 Free energy of the ion-electron system (eV)
  ---------------------------------------------------
  alpha Z        PSCENC =         0.06124749
  Ewald energy   TEWEN  =       214.56071925
  -Hartree energ DENC   =      -697.43950268
  -exchange      EXHF   =         0.00000000
  -V(xc)+E(xc)   XCENC  =        41.06952295
  PAW double counting   =       879.73046732     -882.52477395
  entropy T*S    EENTRO =        -0.00000000
  eigenvalues    EBANDS =      -154.85842104
  atomic energy  EATOM  =       587.33585529
  ---------------------------------------------------
  free energy    TOTEN  =       -12.06488537 eV

  energy without entropy =      -12.06488537  energy(sigma->0) =      -12.06488537


--------------------------------------------------------------------------------------------------------




--------------------------------------- Iteration      1(  14)  ---------------------------------------


    POTLOK:  cpu time     81.4151: real time     81.4294
    SETDIJ:  cpu time      0.0084: real time      0.0083
    TRIAL :  cpu time      0.5929: real time      0.5930
    CORREC:  cpu time     82.2744: real time     82.2885
    CHARGE:  cpu time      0.7056: real time      0.7056
    --------------------------------------------
      LOOP:  cpu time    165.0002: real time    165.0288

 eigenvalue-minimisations  :     0
 total energy-change (2. order) :-0.1973282E-03  (-0.5102369E-04)
 number of electron      10.0000009 magnetization 
 augmentation part        0.6617950 magnetization 

 Free energy of the ion-electron system (eV)
  ---------------------------------------------------
  alpha Z        PSCENC =         0.06124749
  Ewald energy   TEWEN  =       214.56071925
  -Hartree energ DENC   =      -697.42450519
  -exchange      EXHF   =         0.00000000
  -V(xc)+E(xc)   XCENC  =        41.06823048
  PAW double counting   =       879.48048026     -882.27509894
  entropy T*S    EENTRO =        -0.00000000
  eigenvalues    EBANDS =      -154.87201133
  atomic energy  EATOM  =       587.33585529
  ---------------------------------------------------
  free energy    TOTEN  =       -12.06508270 eV

  energy without entropy =      -12.06508270  energy(sigma->0) =      -12.06508270


--------------------------------------------------------------------------------------------------------




--------------------------------------- Iteration      1(  15)  ---------------------------------------


    POTLOK:  cpu time     81.3820: real time     81.3998
    SETDIJ:  cpu time      0.0082: real time      0.0082
    TRIAL :  cpu time      0.5845: real time      0.5846
    CORREC:  cpu time     81.6599: real time     81.6743
    CHARGE:  cpu time      0.7059: real time      0.7059
    --------------------------------------------
      LOOP:  cpu time    164.3429: real time    164.3767

 eigenvalue-minimisations  :     0
 total energy-change (2. order) :-0.5098404E-04  (-0.1156885E-04)
 number of electron      10.0000009 magnetization 
 augmentation part        0.6617642 magnetization 

 Free energy of the ion-electron system (eV)
  ---------------------------------------------------
  alpha Z        PSCENC =         0.06124749
  Ewald energy   TEWEN  =       214.56071925
  -Hartree energ DENC   =      -697.41640723
  -exchange      EXHF   =         0.00000000
  -V(xc)+E(xc)   XCENC  =        41.06777584
  PAW double counting   =       879.23517325     -882.02965198
  entropy T*S    EENTRO =        -0.00000000
  eigenvalues    EBANDS =      -154.87984560
  atomic energy  EATOM  =       587.33585529
  ---------------------------------------------------
  free energy    TOTEN  =       -12.06513368 eV

  energy without entropy =      -12.06513368  energy(sigma->0) =      -12.06513368


--------------------------------------------------------------------------------------------------------




--------------------------------------- Iteration      1(  16)  ---------------------------------------


    POTLOK:  cpu time     81.3252: real time     81.3394
    SETDIJ:  cpu time      0.0084: real time      0.0084
    TRIAL :  cpu time      0.5765: real time      0.5766
    CORREC:  cpu time     82.1133: real time     82.1310
    CHARGE:  cpu time      0.7040: real time      0.7041
    --------------------------------------------
      LOOP:  cpu time    164.7298: real time    164.7634

 eigenvalue-minimisations  :     0
 total energy-change (2. order) :-0.1154351E-04  (-0.2898616E-05)
 number of electron      10.0000009 magnetization 
 augmentation part        0.6617603 magnetization 

 Free energy of the ion-electron system (eV)
  ---------------------------------------------------
  alpha Z        PSCENC =         0.06124749
  Ewald energy   TEWEN  =       214.56071925
  -Hartree energ DENC   =      -697.41319205
  -exchange      EXHF   =         0.00000000
  -V(xc)+E(xc)   XCENC  =        41.06760581
  PAW double counting   =       879.07601669     -881.87039246
  entropy T*S    EENTRO =        -0.00000000
  eigenvalues    EBANDS =      -154.88300524
  atomic energy  EATOM  =       587.33585529
  ---------------------------------------------------
  free energy    TOTEN  =       -12.06514523 eV

  energy without entropy =      -12.06514523  energy(sigma->0) =      -12.06514523


--------------------------------------------------------------------------------------------------------




--------------------------------------- Iteration      1(  17)  ---------------------------------------


    POTLOK:  cpu time     81.7354: real time     81.7499
    SETDIJ:  cpu time      0.0082: real time      0.0082
    TRIAL :  cpu time      0.5866: real time      0.5866
    CORREC:  cpu time     82.1850: real time     82.1997
    EDDIAG:  cpu time      0.2179: real time      0.2180
    CHARGE:  cpu time      0.7038: real time      0.7039
    --------------------------------------------
      LOOP:  cpu time    165.4395: real time    165.4698

 eigenvalue-minimisations  :     0
 total energy-change (2. order) :-0.2892522E-05  (-0.8159392E-06)
 number of electron      10.0000009 magnetization 
 augmentation part        0.6617647 magnetization 

 Free energy of the ion-electron system (eV)
  ---------------------------------------------------
  alpha Z        PSCENC =         0.06124749
  Ewald energy   TEWEN  =       214.56071925
  -Hartree energ DENC   =      -697.41627991
  -exchange      EXHF   =         0.00000000
  -V(xc)+E(xc)   XCENC  =        41.06775354
  PAW double counting   =       878.98701131     -881.78136709
  entropy T*S    EENTRO =        -0.00000000
  eigenvalues    EBANDS =      -154.88008800
  atomic energy  EATOM  =       587.33585529
  ---------------------------------------------------
  free energy    TOTEN  =       -12.06514812 eV

  energy without entropy =      -12.06514812  energy(sigma->0) =      -12.06514812


--------------------------------------------------------------------------------------------------------


  average scaling for gradient   1.3014


 average (electrostatic) potential at core
  the test charge radii are     0.6991  0.7215
  (the norm of the test charge is              1.0000)
       1 -62.1199       2 -84.0549
 
 
 
 E-fermi :  -9.3244     XC(G=0):  -0.1195     alpha+bet : -0.0245

 Fermi energy:        -9.3244314536

 k-point     1 :       0.0000    0.0000    0.0000
  band No.  band energies     occupation 
      1     -29.6861      2.00000
      2     -14.3731      2.00000
      3     -11.9882      2.00000
      4     -11.9881      2.00000
      5      -9.4044      2.00000
      6      -2.3768      0.00000
      7      -2.3768      0.00000
      8      -0.3501      0.00000
      9       0.1206      0.00000


--------------------------------------------------------------------------------------------------------


 soft charge-density along one line, spin component           1
         0         1         2         3         4         5         6         7         8         9
 total charge-density along one line
 
 pseudopotential strength for first ion, spin component:           1
 10.460  13.917   0.000   0.024   0.000  -0.000  -0.077  -0.000
 13.917  18.515   0.000   0.031   0.000  -0.000  -0.102  -0.000
  0.000   0.000  -4.432  -0.000   0.000   8.670   0.000  -0.000
  0.024   0.031  -0.000  -4.450   0.000   0.000   8.691  -0.000
  0.000   0.000   0.000   0.000  -4.432  -0.000  -0.000   8.670
 -0.000  -0.000   8.670   0.000  -0.000 -19.110  -0.000   0.000
 -0.077  -0.102   0.000   8.691  -0.000  -0.000 -19.122   0.000
 -0.000  -0.000  -0.000  -0.000   8.670   0.000   0.000 -19.110
 total augmentation occupancy for first ion, spin component:           1
  8.251  -3.806   0.000   2.137   0.000   0.000   0.400   0.000
 -3.806   2.122   0.000  -1.637   0.000   0.000  -0.245   0.000
  0.000   0.000   0.824   0.000   0.000   0.062   0.000   0.000
  2.137  -1.637   0.000   2.250   0.000   0.000   0.214   0.000
  0.000   0.000   0.000   0.000   0.824   0.000   0.000   0.062
  0.000   0.000   0.062   0.000   0.000   0.005   0.000   0.000
  0.400  -0.245   0.000   0.214   0.000   0.000   0.029   0.000
  0.000   0.000   0.000   0.000   0.062   0.000   0.000   0.005


------------------------ aborting loop because EDIFF is reached ----------------------------------------


    FORLOC:  cpu time      0.1526: real time      0.1526
    FORNL :  cpu time      0.3136: real time      0.3136
    STRESS:  cpu time      1.0858: real time      1.0860
    FORCOR:  cpu time     81.3618: real time     81.3761
    OFIELD:  cpu time      0.0047: real time      0.0047

  FORCE on cell =-STRESS in cart. coord.  units (eV):
  Direction    XX          YY          ZZ          XY          YZ          ZX
  --------------------------------------------------------------------------------------
  Alpha Z     0.06125     0.06125     0.06125
  Ewald      12.23527   -11.70160   214.02701    -0.00000    -0.00000     0.00000
  Hartree   238.09574   214.47498   244.84600     0.00000     0.00000    -0.00000
  E(xc)     -46.52129   -46.52097   -44.59006    -0.00000     0.00000    -0.00000
  Local    -384.37216  -336.81512  -567.00105    -0.00000     0.00000     0.00001
  n-local   -17.76899   -17.78107   -28.90179     0.00777     0.00770    -0.00285
  augment     6.26329     6.26510     5.71636     0.00005    -0.00006    -0.00019
  Kinetic   191.97859   191.97750   176.05603     0.00014    -0.00018     0.00002
  Fock        0.00000     0.00000     0.00000     0.00000     0.00000     0.00000
  -------------------------------------------------------------------------------------
  Total      -0.02829    -0.03995     0.21375     0.00000     0.00000     0.00000
  in kB      -0.00635    -0.00897     0.04800     0.00000     0.00000     0.00000
  external pressure =        0.01 kB  Pullay stress =        0.00 kB


 VOLUME and BASIS-vectors are now :
 -----------------------------------------------------------------------------
  energy-cutoff  :      500.00
  volume of cell :     7134.29
      direct lattice vectors                 reciprocal lattice vectors
    14.133534590  0.000000000  0.000000000     0.070753709  0.000000000  0.000000000
     0.000000000 17.309974003  0.000000000     0.000000000  0.057770162  0.000000000
     0.000000000  0.000000000 29.161091638     0.000000000  0.000000000  0.034292269

  length of vectors
    14.133534590 17.309974003 29.161091638     0.070753709  0.057770162  0.034292269


 FORCES acting on ions:
    Electron-Ion                     Ewald-Force                    Non-Local-Force
 -----------------------------------------------------------------------------------------------
   0.419E-05 -.144E-04 0.238E+03   -.754E-17 0.216E-17 -.266E+03   0.156E-19 -.180E-18 0.281E+02
   0.516E-04 -.460E-04 -.206E+03   -.898E-17 0.903E-17 0.266E+03   0.979E-19 0.122E-17 -.598E+02
 -----------------------------------------------------------------------------------------------
   0.557E-04 -.573E-04 0.317E+02   -.165E-16 0.112E-16 0.000E+00   0.113E-18 0.104E-17 -.317E+02
 
 
 POSITION                                       TOTAL-FORCE (eV/Angst)
 -----------------------------------------------------------------------------------
     11.48700      6.63200     14.55635         0.000000      0.000000     -0.219094
     11.48700      6.63200     15.69635        -0.000000     -0.000000      0.219094
 -----------------------------------------------------------------------------------
    total drift:                                0.000056     -0.000057     -0.012956


--------------------------------------------------------------------------------------------------------



  FREE ENERGIE OF THE ION-ELECTRON SYSTEM (eV)
  ---------------------------------------------------
  free  energy   TOTEN  =       -12.06514812 eV

  energy  without entropy=      -12.06514812  energy(sigma->0) =      -12.06514812
 


--------------------------------------------------------------------------------------------------------


 BEEFens 2000 ensemble energies
             -0.103753330944828E+02
             -0.257440258655073E+00
             -0.227293987269447E+01
              0.726116003386512E+01
             -0.360281964730406E+01
             -0.283671725904686E+01
             -0.723671267275517E+01
             -0.156662162432975E+02
             -0.644286151186402E+01
             -0.698407749334928E+01
             -0.572087667866121E+01
              0.465316642565757E+00
              0.357049670900775E+00
              0.130473618604704E+00
              0.561998956610189E+00
              0.777697490897333E+01
             -0.360501005993497E+01
             -0.246390388739854E+01
              0.361559730592114E+01
             -0.184059570286059E+02
              0.906544599339305E+01
             -0.369597923773331E+01
             -0.103002818258835E+01
             -0.170688011067670E+01
             -0.172420621774378E+00
             -0.107696540547315E+01
              0.148651924120457E+02
             -0.298376118379135E+01
             -0.142611167937525E+01
             -0.888918971785913E+01
              0.124217367483255E+02
             -0.163951899277082E+01
             -0.680521504230973E+01
              0.337434420246131E+01
             -0.489390715087964E+00
              0.396738224616460E+01
             -0.217638785659183E+00
              0.559194368890651E+00
              0.547334044301892E+01
             -0.170038311042865E+02
              0.924601400326478E+01
              0.185778974309716E+01
             -0.127956140930576E+01
             -0.517074571740524E+01
              0.203343193477377E+01
             -0.250937645177399E+01
              0.791845036898491E+01
              0.597608543291777E+01
             -0.398950409381941E+01
             -0.506161505755503E+01
             -0.500257399646966E+01
             -0.603129820875026E+01
              0.312389943990568E+01
             -0.860641632942354E+01
              0.234759360177856E+01
              0.995600656656256E+01
              0.115782853146723E+02
              0.554188685900474E+01
              0.296383624830386E+01
              0.493183685188211E+01
              0.150886885341046E+02
              0.339352908063259E+01
             -0.923237824460710E+01
             -0.204840600176068E+01
             -0.469036893254974E+01
              0.104150194344626E+02
             -0.126236853452056E+02
             -0.101903231546259E+02
             -0.503539080460401E+01
             -0.212987431638949E+01
             -0.702400383180112E+01
              0.459447511488577E+01
              0.220470052521796E+01
              0.220371145445309E+01
             -0.647752681548632E+01
             -0.582008263345570E+01
             -0.927886834025310E+01
              0.591142063439823E+01
             -0.529160993753492E+01
              0.491421692460080E+01
             -0.115291686746048E+01
             -0.513404206943594E+01
             -0.901191894428931E+01
             -0.262330955928178E+01
             -0.250616108788840E+01
             -0.254673142284349E+01
              0.661866571862841E+01
              0.120849483440885E+02
             -0.701363244361663E+01
             -0.132429912561104E+02
             -0.323468025303167E+01
              0.184257397247234E+02
             -0.931968324587328E+01
              0.533083364048996E+01
             -0.154633773051685E+01
             -0.104358319696797E+02
              0.462759696853009E+01
              0.561387075670818E+01
             -0.246921304345216E+01
              0.523196674506923E+01
             -0.460925610686169E+01
             -0.915297812943594E+01
              0.158337430242890E+02
              0.741722473305735E+01
              0.430890967741971E+01
              0.193708494979902E+01
              0.315508364533607E+01
              0.137201598611507E+02
             -0.447990507931055E+01
              0.592058580116918E+00
             -0.233311908264639E+02
              0.338173688865925E+01
             -0.113281237769626E+02
              0.213909919052200E+01
              0.346139016519852E+01
             -0.570404476716479E+01
             -0.873028713755119E+01
              0.785313978845409E+00
             -0.503941285622116E+01
              0.660428633702485E+01
             -0.760230499158275E+01
             -0.880983556633581E+00
             -0.628516034503946E+01
             -0.420228606293243E+00
              0.232427079595066E+00
              0.312698836245381E+01
              0.826527713892347E-01
             -0.121081877566255E+01
              0.104913237641794E+02
              0.151516780946437E+02
              0.806357272397981E+01
              0.119471182707327E+02
             -0.232080130035209E+01
              0.155209852747778E+01
              0.867999116920134E+01
             -0.197003547611232E+00
             -0.125125026962491E+02
             -0.696086985254608E+01
             -0.820474485667714E+01
             -0.491533204841068E+01
              0.445493476611806E+01
             -0.198624199769790E+02
             -0.225066447983039E+01
              0.725866167052412E+01
             -0.681697963458154E+01
             -0.543184036030667E+01
              0.892132022631301E+01
              0.792592414230450E+01
             -0.500941086476158E+01
              0.422009968954143E+01
             -0.423538577622476E+01
              0.625932134891002E+01
              0.129431145803041E+01
              0.241368524337927E+01
             -0.140047393408353E+02
             -0.804054837014587E+01
             -0.160059596024945E+01
             -0.402832652178021E+00
             -0.666791843632541E+01
              0.181250627626922E+02
             -0.246803746955483E+01
             -0.505388814247153E+01
              0.669263930501640E+01
             -0.769263233056536E+01
             -0.599163642506161E+01
              0.513823206873955E+01
              0.179069781976766E+01
              0.172842571818632E+01
              0.214407737719749E+01
             -0.187553258212870E+01
              0.230059283780582E+01
              0.978270924831137E+01
             -0.485307871936160E+01
              0.329647435333573E+01
              0.149138592585559E+02
              0.521381757713169E+01
             -0.717775599531535E+00
             -0.307241509763858E+01
              0.253351181009770E+02
             -0.365399060947771E+01
              0.636229054731586E+01
              0.447996909543362E+01
              0.524415102093468E+01
              0.154249337846243E+02
              0.795146570987724E+01
             -0.729631574701738E+00
              0.375009738614558E+01
              0.836971832324872E+01
              0.625263645459619E+01
             -0.970903656180064E+01
              0.156219526508810E+02
             -0.143411341137376E+02
             -0.241892068656901E+01
              0.946433266369566E+01
              0.182995446079758E+01
              0.729574595902804E+00
              0.508430006968396E+01
              0.322383134873342E+01
              0.547004638596142E+01
             -0.103578845269700E+02
              0.613125727097852E+00
             -0.409479644622506E+01
             -0.106464827571031E+01
             -0.186802184208091E+00
             -0.183848728804820E+01
             -0.938534419577763E+00
              0.139878456832553E+02
             -0.933791481185338E+00
             -0.490194648723525E+01
             -0.424686976857759E+00
              0.227644636168545E+01
             -0.101862117520725E+02
             -0.805065645819599E+01
             -0.568707257342210E+01
             -0.103614954647645E+02
             -0.297086881172141E+01
             -0.686218850222168E+01
              0.295718043475795E+01
             -0.818031750828823E-01
             -0.200217409822569E+01
             -0.143820467158637E+01
              0.107816832033399E+01
             -0.337459810894209E+01
              0.107502566224220E+02
             -0.140328914122862E+02
             -0.204808670327713E+01
             -0.263698881760049E+01
              0.282955369359033E+01
              0.316590443478137E+01
             -0.822055341351702E+01
             -0.241859907372153E+01
              0.741624337879643E+01
             -0.390739604527064E+01
              0.228289358846285E+01
              0.606711867911262E+01
             -0.106615552666625E+00
              0.191074019432635E+02
             -0.259479140285953E+01
             -0.601497468413055E+01
              0.260113790005704E+00
             -0.453503199450700E+01
              0.856435572853305E+01
             -0.725981591455390E+01
              0.218906131946946E+01
              0.883598779711040E+01
             -0.230113357588506E+01
              0.195843371154374E+02
              0.209221547927137E+02
             -0.117529301282580E+02
              0.948833303277499E+01
              0.331410454057452E+01
             -0.894787012510691E+01
              0.340996675405707E+01
              0.651956894207983E+01
              0.707463603007122E+01
              0.733740228239952E+00
              0.287699228543134E+01
              0.119809418274935E+02
             -0.385265064818364E+01
              0.182652463009156E+01
              0.114596919526604E+02
             -0.599532593894041E+01
             -0.329509984143268E+01
              0.935420225590835E+01
              0.507646713889863E+01
              0.128472617304396E+02
              0.502241414406647E+01
              0.183655530675364E+01
              0.411223814784529E+01
              0.691363769087555E+01
             -0.802537083805173E+01
              0.790103804701019E+00
              0.346162832144466E+01
              0.152801920679653E+01
              0.385560670538841E+01
             -0.101099924902652E+02
              0.568043910102401E+01
             -0.722309218403555E+01
             -0.523611762335780E+01
              0.287090228314142E+01
             -0.207934226023148E+01
              0.953313584851789E+01
             -0.337625988178519E+01
              0.452437962774747E+01
              0.514908327143426E+01
              0.131374846008839E+02
              0.896244165028759E+01
              0.841810713399607E+01
             -0.134400878831558E+01
             -0.135174099733551E+01
             -0.511894450945273E+01
              0.131388492340193E+02
              0.135918693811018E+02
              0.615765099337763E+01
             -0.418516290037105E+01
              0.828589564611885E+01
             -0.100156533586354E+01
              0.339208241869246E+01
              0.110835195787649E+02
             -0.351333642515804E+00
             -0.183577229434913E+01
             -0.427194397225261E+01
             -0.946221569069748E+01
              0.159327707076887E+02
              0.774345260976119E+01
             -0.102159936078407E+02
             -0.295933558635953E+01
              0.414310308756672E+01
             -0.200992798648331E+01
              0.104303685975260E+02
              0.269333265009763E+01
              0.132482094874109E+02
              0.445393226526299E+01
             -0.420466409520397E+01
              0.339666617707692E+01
             -0.104440765006783E+01
             -0.458301040246950E+01
              0.275583350594897E+01
              0.322889475059377E+01
              0.147758670847642E+02
              0.126723737376914E+02
              0.932966124117756E+01
              0.117751277451810E+02
              0.125276853220522E+01
             -0.455996813352783E+01
              0.225690195053840E+01
             -0.574862641244572E+01
             -0.876675916467270E+01
             -0.949708667311333E+01
             -0.498387938555067E+01
             -0.181201083691355E+02
             -0.562615813591071E+01
             -0.140849455039693E+02
              0.310698278235956E+01
             -0.767625057456112E+01
              0.774735732971079E+01
             -0.157413591272757E+02
             -0.507079771471571E+01
              0.752062836203960E+01
              0.357386151443719E+01
             -0.143706348814727E+02
              0.939541850880175E+01
             -0.461355368579707E+01
              0.895584413408715E+01
             -0.476215667428085E+01
             -0.126578582551061E+02
              0.270972250775378E+01
             -0.104759538524627E+02
             -0.150663503116217E+01
             -0.645729391710836E-01
              0.705675101572940E+01
              0.207981929157664E+02
             -0.742835313468419E+01
             -0.622089419059059E+01
             -0.903372719771539E+00
             -0.164534267635192E+01
             -0.132677650940589E+02
             -0.974508986549612E+01
              0.868294453589157E+01
             -0.359791510366320E+01
              0.312311311688335E+01
             -0.809482625081626E+01
             -0.224705561526682E+01
             -0.706665622277132E+01
              0.828308483249258E+01
              0.261074304065937E+01
             -0.406017653293129E+01
             -0.240544445025815E+01
              0.180864017716051E+01
             -0.130434727988733E+01
              0.662438812573243E+01
             -0.442430406488602E+01
              0.115557413826468E+01
              0.544444815493389E+01
              0.246759712892545E+01
             -0.341369030919230E+01
              0.258434961705149E+02
              0.936092944806656E+01
              0.122312182725314E+01
              0.140551223916543E+01
             -0.100103486408028E+02
              0.528582751125390E+01
             -0.123570742458184E+02
             -0.517524585573059E+01
             -0.969105706861944E+01
             -0.307838467099458E+01
              0.966256262730397E+01
             -0.944654899462018E+01
              0.356111177266499E+01
             -0.658479571117539E+00
              0.385905675895103E+00
             -0.577312762625640E+01
             -0.711528995184010E+01
             -0.826961804478842E+00
             -0.634765202779734E+01
             -0.385257628995453E+01
             -0.651791702678571E+01
             -0.112746423291991E+01
             -0.538234210197594E+01
             -0.819500297959184E+01
              0.388875423534422E+01
             -0.255874612933084E+01
              0.350887709329958E+01
              0.170937881458464E+01
             -0.122355142935554E+02
             -0.876482739339617E+01
             -0.761324497701680E+01
              0.566956973873175E+01
             -0.580088801476819E+00
             -0.103790012043661E+02
              0.940529624950273E+01
             -0.708636622483859E+01
              0.915695977267005E+01
             -0.491696242753150E+01
             -0.796719631948968E+01
              0.452397889417497E+01
             -0.117366234024963E+02
             -0.572619357563426E+01
              0.105042698131090E+02
              0.353504527450266E+01
             -0.642476263220694E+01
              0.900174247609036E+01
             -0.269503759858316E+01
             -0.574768822797633E+01
             -0.505848116771388E+01
             -0.862768186847876E+01
              0.402613668877535E+01
             -0.148538230663128E+02
             -0.133027318401935E+02
             -0.105637455090638E+01
             -0.485512858727893E+01
             -0.986755992026929E+01
              0.123348931552244E+02
              0.224516903882394E+02
             -0.448430739575761E+01
             -0.370688161824120E+00
             -0.105186078842115E+02
              0.108326735133876E+02
              0.335574578001943E+01
             -0.296477342000583E+01
             -0.642779554931649E+01
              0.231859785564278E+01
             -0.100239618626191E+02
             -0.213816917397407E+01
             -0.146935565507954E+02
              0.530813501703085E+01
              0.256748276836998E+01
             -0.445992806823412E+00
             -0.149173368086444E+01
             -0.613048532231636E+01
             -0.189630814810567E+01
              0.221220567585670E+02
             -0.272345457706828E+01
             -0.769130979213236E+01
             -0.112371629525728E+02
              0.217362476170260E+01
             -0.596036173118734E+01
              0.115951616795990E+01
              0.513259367012811E+01
              0.103245389569425E+01
              0.565551675433777E+01
              0.272326784816453E+01
              0.100375362982420E+02
              0.471635131144051E+01
             -0.572745297692436E+01
              0.767150115420876E+01
              0.598453392507363E+01
              0.209877987642439E+01
              0.683034779693815E+01
             -0.438843500054887E+01
              0.119910114974047E+02
              0.358777763020591E+01
             -0.532095271964282E+01
             -0.122227629082753E+01
             -0.278493172936167E+01
              0.317218403590778E+01
             -0.441266198275795E+01
             -0.116225553325696E+01
             -0.183253659269667E+01
              0.133838639521325E+02
              0.929638162243157E+01
             -0.112512045767097E+02
             -0.954452612619079E+00
             -0.878615113943962E+01
             -0.237867697353386E+01
             -0.391407321127189E+01
              0.138248350541068E+01
             -0.490244371160596E+00
             -0.444650654026913E+01
              0.199974527283567E+01
             -0.133661129865578E+01
             -0.169863725803038E+01
              0.143377427514239E+02
              0.283413271180946E+01
             -0.135206730465377E+02
             -0.713306975879422E+01
              0.154967256782884E+02
              0.392343596958905E+01
             -0.146118662823183E+01
              0.180199419801597E+02
             -0.314667828319931E+01
             -0.151490859343136E+01
             -0.174777791031835E+01
              0.237872954417605E+01
              0.499706872478313E+01
              0.743726562376573E+00
              0.483468030321937E+01
             -0.235237521022380E+01
             -0.593192202161524E+01
             -0.649032361920145E+01
             -0.810214431299308E+01
              0.736144441432378E+01
              0.250014591494607E+01
[...]
  328          m_sumb_d                              0.000154                          3   4
  329        strehar                               0.466538                            3   3
  330          m_sumb_d                              0.000130                          3   4
  331        m_bcast_d                             0.001217                            6   3
  332      potlok                              541.542480                              5   2
  333        fft3d_mpi                            75.942789                         1133   3
  334          fftbrc_mpi                           68.350131                       1133   4
  335            fftbas_plan_mpi                      68.346656                     1133   5
  336              dfftw_execute                        32.730376                   3399   6
  337              map_forward                          16.187357                   1138   6
  338                map_gather                            6.307079                  569   7
  339                m_alltoallv_z                         4.109046                  569   7
  340                map_scatter                           5.760472                  569   7
  341              map_backward                         18.760935                   1128   6
  342                map_gather                            6.738014                  564   7
  343                m_alltoallv_z                         4.718614                  564   7
  344                map_scatter                           7.294355                  564   7
  345        ggaall_grid                          65.976856                          101   3
  346        m_sumb_d                              0.027671                          510   3
  347        pothar                                0.118264                            5   3
  348          m_sumb_d                              0.000187                          5   4
  349      potlok_metagga                        0.000028                              5   2
  350      set_dd_magatom                        0.000003                              3   2
  351      set_dd_paw                            0.035827                              5   2
  352        set_rsgf_all                          0.000006                            5   3
  353        m_sumb_d                              0.000664                           30   3
  354      wavpre_noio                           0.708827                              2   2
  355        stufak                                0.144398                            2   3
  356      eddiag                                0.446118                              2   2
  357        overl                                 0.000061                            2   3
  358        fftwav_mpi                            0.210572                           18   3
  359          fft3d_mpi                             0.184676                         18   4
  360            fftbas_mpi                            0.184562                       18   5
  361              fftbas_plan_mpi                       0.184508                     18   6
  362                dfftw_execute                         0.100065                   54   7
  363                map_forward                           0.074407                   36   7
  364                  map_gather                            0.018862                 18   8
  365                  m_alltoallv_z                         0.016324                 18   8
  366                  map_scatter                           0.025510                 18   8
  367        hamilt_local                          0.211026                           18   3
  368          vhamil                                0.023965                         18   4
  369          kinhamil                              0.186913                         18   4
  370            fftext_mpi                            0.183170                       18   5
  371              fft3d_mpi                             0.167806                     18   6
  372                fftbas_mpi                            0.167754                   18   7
  373                  fftbas_plan_mpi                       0.167706                 18   8
  374                    dfftw_execute                         0.099230               54   9
  375                    map_backward                          0.059324               36   9
  376                      map_gather                            0.023048             18  10
  377                      m_alltoallv_z                         0.015423             18  10
  378                      map_scatter                           0.020449             18  10
  379        orth1                                 0.007592                            2   3
  380        m_sumb_d                              0.000103                            2   3
  381        shift_bands_between_low_high          0.000002                            2   3
  382        lincom                                0.011402                            2   3
  383      set_charge                            1.352503                              2   2
  384        soft_charge                           0.151594                            2   3
  385          fftwav_mpi                            0.113628                         10   4
  386            fft3d_mpi                             0.101717                       10   5
  387              fftbas_mpi                            0.101683                     10   6
  388                fftbas_plan_mpi                       0.101652                   10   7
  389                  dfftw_execute                         0.056079                 30   8
  390                  map_forward                           0.040340                 20   8
  391                    map_gather                            0.010106               10   9
  392                    m_alltoallv_z                         0.008347               10   9
  393                    map_scatter                           0.014045               10   9
  394          pw_charge                             0.012239                         10   4
  395          fft_gq                                0.020255                          2   4
  396            fft3d_mpi                             0.019449                        2   5
  397              fftbrc_mpi                            0.017701                      2   6
  398                fftbas_plan_mpi                       0.017695                    2   7
  399                  dfftw_execute                         0.007111                  6   8
  400                  map_backward                          0.009568                  4   8
  401                    map_gather                            0.003045                2   9
  402                    m_alltoallv_z                         0.003048                2   9
  403                    map_scatter                           0.003436                2   9
  404        m_sumb_d                              0.023992                            2   3
  405        depsum                                0.000068                            2   3
  406        augmentation_charge                   0.161729                            2   3
  407          m_sumb_d                              0.000104                          2   4
  408          fft3d_mpi                             0.133135                          2   4
  409            fftbrc_mpi                            0.119736                        2   5
  410              fftbas_plan_mpi                       0.119730                      2   6
  411                dfftw_execute                         0.056054                    6   7
  412                map_backward                          0.062530                    4   7
  413                  map_gather                            0.023711                  2   8
  414                  m_alltoallv_z                         0.012701                  2   8
  415                  map_scatter                           0.026073                  2   8
 
 Flat profile
 ============
 
             routine name                   CPU           calls
 ---------------------------------------------------------------
 potlok                               4989.111975          66
 force_and_stress                      225.114601           3
 ggaall_grid                           225.060187         165
 dfftw_execute                         182.454569       25722
 map_scatter                            71.076547        8574
 map_gather                             70.328897        8574
 m_alltoallv_z                          46.950040        8574
 fft3d_mpi                              39.056496        8574
 set_charge                             32.620795          63
 total_time                             10.450646           1
 fftbas_plan_mpi                         4.951311        8574
 edwav                                   3.150810          60
 fftwav_mpi                              2.590426        1866
 pothar                                  1.564811          66
 map_forward                             1.498631        9600
 eccp                                    1.430935        1125
 augmentation_charge                     1.267938          63
 m_sumb_d                                1.193764        6568
 lincom                                  0.964159         193
 orth1                                   0.692816         251
 vhamil                                  0.667792         510
 wavpre_noio                             0.564429           2
 set_dd_paw                              0.489878          69
 fftext_mpi                              0.468545         780
 forhar                                  0.466456           3
 strehar                                 0.466408           3
 forloc                                  0.452791           3
 ggemm                                   0.426333          51
 strelo                                  0.417349           3
 pw_charge                               0.379420         315
 w1_dscal                                0.243406         270
 stufak                                  0.227511           3
 elmin_all                               0.188248           3
 soft_charge                             0.176809          63
 eddav                                   0.141337           5
 kinhamil                                0.106683         510
 w1_copy                                 0.091805         585
 eddiag                                  0.073104          35
 map_backward                            0.068993        7548
 setdij_                                 0.067122         145
 lapack                                  0.052874          41
 inisym                                  0.043153           1
 m_bcast_z                               0.029398          59
 setup_precond                           0.026967          45
 fft_gq                                  0.025808          63
 apply_precond                           0.024664         150
 rpromu_gemm                             0.019606         268
 racc0                                   0.018370         289
 brgrid                                  0.017972           1
 fftbrc_mpi                              0.016608        5928
 rpro1                                   0.014892         284
 rspher_all                              0.012202          40
 m_bcast_d                               0.011041          95
 gemm                                    0.010634          44
 overl                                   0.010530         743
 choleski                                0.010287          63
 phaser                                  0.009155          74
 strkin                                  0.008624           3
 fftbas_mpi                              0.008123        2646
 rpro_isp                                0.007046          39
 rpromu                                  0.006492         134
 densta                                  0.005491          74
 fewald                                  0.005441           3
 crrexp_mul_wave                         0.004475        1542
 crrexp_mul_work_add                     0.003834         930
 orthch                                  0.002897          63
 hamilt_local                            0.002794         315
 hamiltmu                                0.002537          41
 depsum                                  0.002229          63
 newband                                 0.002144          46
 rsp                                     0.002077           3
 racc0mu                                 0.001472          22
 strnlr                                  0.001427           3
 raccmu_                                 0.001153          41
 overl1                                  0.000918         195
 fornlr                                  0.000633           3
 rcp                                     0.000501           3
 potlok_metagga                          0.000313          66
 crpa_reader                             0.000282           1
 set_rsgf_all                            0.000260          69
 truncate_high_frequency_w1              0.000199         240
 w1_projall                              0.000138          31
 proall                                  0.000134           3
 fordep                                  0.000110           3
 set_dd_magatom                          0.000109           6
 redis_pw_over_bands                     0.000103          65
 vectorpot                               0.000082           1
 rotate_active_occupied_orbital          0.000033           3
 posmap                                  0.000018           2
 shift_bands_between_low_high            0.000006           5
 ---------------------------------------------------------------
  summed up times    5918.14102697372     
 
 Accumulative profile
 ====================
 
             routine name                   CPU           calls
 ---------------------------------------------------------------
 total_time                           5918.141027           1
 potlok                               5582.715034          66
 elmin_all                            5113.832254           3
 fft3d_mpi                             416.410215        8574
 fftbas_plan_mpi                       377.328988        8574
 fftbrc_mpi                            351.132512        5928
 force_and_stress                      248.959315           3
 ggaall_grid                           225.060187         165
 dfftw_execute                         182.454569       25722
 map_backward                           97.270095        7548
 map_forward                            92.653013        9600
 map_scatter                            71.076547        8574
 map_gather                             70.328897        8574
 m_alltoallv_z                          46.950040        8574
 set_charge                             43.595356          63
 fftbas_mpi                             26.221207        2646
 fftwav_mpi                             21.514355        1866
 edwav                                  18.104403          60
 fftext_mpi                              7.775883         780
 eddav                                   7.391003           5
 augmentation_charge                     5.486254          63
 kinhamil                                5.133675         510
 soft_charge                             4.712949          63
 eddiag                                  4.673218          35
 rpro_isp                                4.029053          39
 hamilt_local                            3.584457         315
 strnlr                                  2.779361           3
 hamiltmu                                2.243874          41
 pothar                                  1.567160          66
 eccp                                    1.497661        1125
 m_sumb_d                                1.193764        6568
 lincom                                  0.964159         193
 fornlr                                  0.927206           3
 wavpre_noio                             0.708827           2
 orth1                                   0.692816         251
 vhamil                                  0.667792         510
 newband                                 0.640244          46
 fft_gq                                  0.619220          63
 set_dd_paw                              0.500319          69
 orthch                                  0.478138          63
 forhar                                  0.466610           3
 strehar                                 0.466538           3
 forloc                                  0.452953           3
 ggemm                                   0.426333          51
 strelo                                  0.417599           3
 pw_charge                               0.379420         315
 proall                                  0.351587           3
 w1_dscal                                0.243406         270
 stufak                                  0.227511           3
 w1_copy                                 0.091805         585
 setdij_                                 0.082060         145
 lapack                                  0.052874          41
 rpromu                                  0.048649         134
 racc0                                   0.043494         289
 inisym                                  0.043171           1
 rpro1                                   0.041610         284
 m_bcast_z                               0.029398          59
 setup_precond                           0.029147          45
 apply_precond                           0.024664         150
 raccmu_                                 0.021532          41
 rpromu_gemm                             0.019606         268
 brgrid                                  0.017972           1
 racc0mu                                 0.017054          22
 w1_projall                              0.014619          31
 rspher_all                              0.012202          40
 m_bcast_d                               0.011041          95
 gemm                                    0.010634          44
 overl                                   0.010530         743
 densta                                  0.010522          74
 choleski                                0.010287          63
 phaser                                  0.009155          74
 strkin                                  0.008843           3
 fewald                                  0.008467           3
 fordep                                  0.006244           3
 crrexp_mul_wave                         0.004475        1542
 crrexp_mul_work_add                     0.003834         930
 depsum                                  0.002229          63
 rsp                                     0.002077           3
 overl1                                  0.000918         195
 rcp                                     0.000501           3
 potlok_metagga                          0.000313          66
 crpa_reader                             0.000282           1
 set_rsgf_all                            0.000260          69
 truncate_high_frequency_w1              0.000199         240
 set_dd_magatom                          0.000109           6
 redis_pw_over_bands                     0.000103          65
 vectorpot                               0.000082           1
 rotate_active_occupied_orbital          0.000033           3
 posmap                                  0.000018           2
 shift_bands_between_low_high            0.000006           5
 ---------------------------------------------------------------
 
Profiling took   0.144073  0.048418  0.007163  0.006219 seconds
Profiling took   0.197755 seconds
