 vasp.6.3.2 27Jun22 (build Jan 03 2024 23:25:20) gamma-only                     
  
 executed on           IFC15_impi date 2024.06.05  05:05:34
 running  512 mpi-ranks, with    1 threads/rank
 distrk:  each k-point on  512 cores,    1 groups
 distr:  one band on NCORE=  32 cores,   16 groups


--------------------------------------------------------------------------------------------------------


 INCAR:
   ENCUT = 500.000000
   SIGMA = 0.010000
   EDIFF = 1.00e-05
   ALGO = A
   ISMEAR = 0
   NELM = 200
   NSW = 999
   NCORE = 32
   LCHARG = .TRUE.
   LWAVE = .TRUE.
   LREAL = Auto
   IBRION = 5
   POTIM = 0.015
   NFREE = 2
   ISYM = 0
   EDIFFG = -0.05
   GGA = BF
   LUSE_VDW = .TRUE.
   ZAB_VDW = -1.8867
   LBEEFENS = .TRUE.
   DIPOL = 0.5 0.5 0.65
   IDIPOL = 3
   LDIPOL = .TRUE.

 POTCAR:    PAW_PBE Au 04Oct2007                  
 POTCAR:    PAW_PBE O 08Apr2002                   
 POTCAR:    PAW_PBE Sr_sv 07Sep2000               
 POTCAR:    PAW_PBE Ti_sv 26Sep2005               
 POTCAR:    PAW_PBE H 15Jun2001                   
 -----------------------------------------------------------------------------
|                                                                             |
|               ----> ADVICE to this user running VASP <----                  |
|                                                                             |
|     You have switched on vdW-DFT.                                           |
|     This routine was written and supplied by Jiri Klimes. We recommend      |
|     that you carefully read and cite the following publications:            |
|       J. Klimes, D.R. Bowler, A. Michelides                                 |
|          J. Phys.: Cond Matt. 22 022201 (2010)                              |
|       J. Klimes, D.R. Bowler, A. Michelides                                 |
|          Phys. Rev. B. 83, 195131 (2011)                                    |
|     and references therein.                                                 |
|                                                                             |
 -----------------------------------------------------------------------------

 POTCAR:    PAW_PBE Au 04Oct2007                  
   SHA256 =  d0044ae04e2bdce24051b198fc5c053d722a5bc6fe3c3b100514a13fc5d2db88 Au/POTCAR             
   COPYR  = (c) Copyright 04Oct2007 Georg Kresse                                                    
   COPYR  = This file is part of the software VASP. Any use, copying, and all other rights are regul
   COPYR  = If you do not have a valid VASP license, you may not use, copy or distribute this file. 
   VRHFIN =Au: s1d10                                                                                
   LEXCH  = PE                                                                                      
   EATOM  =   926.0867 eV,   68.0654 Ry                                                             
                                                                                                    
   TITEL  = PAW_PBE Au 04Oct2007                                                                    
   LULTRA =        F    use ultrasoft PP ?                                                          
   IUNSCR =        1    unscreen: 0-lin 1-nonlin 2-no                                               
   RPACOR =    2.330    partial core radius                                                         
   POMASS =  196.966; ZVAL   =   11.000    mass and valenz                                          
   RCORE  =    2.500    outmost cutoff radius                                                       
   RWIGS  =    2.840; RWIGS  =    1.503    wigner-seitz radius (au A)                               
   ENMAX  =  229.943; ENMIN  =  172.457 eV                                                          
   ICORE  =        3    local potential                                                             
   LCOR   =        T    correct aug charges                                                         
   LPAW   =        T    paw PP                                                                      
   EAUG   =  356.670                                                                                
   DEXC   =    0.000                                                                                
   RMAX   =    2.562    core radius for proj-oper                                                   
   RAUG   =    1.300    factor for augmentation sphere                                              
   RDEP   =    2.598    radius for radial grids                                                     
   RDEPT  =    2.193    core radius for aug-charge                                                  
                                                                                                    
   Atomic configuration                                                                             
   16 entries                                                                                       
     n  l   j            E        occ.                                                              
     1  0  0.50    -80748.5001   2.0000                                                             
     2  0  0.50    -14244.7466   2.0000                                                             
     2  1  1.50    -12310.9591   6.0000                                                             
     3  0  0.50     -3362.1768   2.0000                                                             
     3  1  1.50     -2801.5463   6.0000                                                             
     3  2  2.50     -2203.8206  10.0000                                                             
     4  0  0.50      -729.8168   2.0000                                                             
     4  1  1.50      -546.0527   6.0000                                                             
     4  2  2.50      -325.7302  10.0000                                                             
     4  3  3.50       -81.1472  14.0000                                                             
     5  0  0.50      -108.3201   2.0000                                                             
     5  1  1.50       -59.7479   6.0000                                                             
     5  2  2.50        -6.8783  10.0000                                                             
     6  0  0.50        -5.7602   1.0000                                                             
     6  1  1.50        -6.8029   0.0000                                                             
     5  3  2.50        -1.3606   0.0000                                                             
   Description                                                                                      
     l       E           TYP  RCUT    TYP  RCUT                                                     
     2     -6.8782861     23  2.500                                                                 
     2     -8.2388687     23  2.500                                                                 
     0     -5.7601759     23  2.500                                                                 
     0     -0.8493231     23  2.500                                                                 
     1     -2.7211652     23  2.500                                                                 
     1     27.2116520     23  2.500                                                                 
     3     -1.3605826     23  2.500                                                                 
  local pseudopotential read in
  partial core-charges read in
  partial kinetic energy density read in
  atomic valenz-charges read in
  non local Contribution for L=           2  read in
    real space projection operators read in
  non local Contribution for L=           2  read in
    real space projection operators read in
  non local Contribution for L=           0  read in
    real space projection operators read in
  non local Contribution for L=           0  read in
    real space projection operators read in
  non local Contribution for L=           1  read in
    real space projection operators read in
  non local Contribution for L=           1  read in
    real space projection operators read in
    PAW grid and wavefunctions read in
 
   number of l-projection  operators is LMAX  =           6
   number of lm-projection operators is LMMAX =          18
 
 POTCAR:    PAW_PBE O 08Apr2002                   
   SHA256 =  818f92134a0a090dccd8ba1447fa70422a3b330e708bb4f08108d8ae51209ddf O/POTCAR              
   COPYR  = (c) Copyright 08Apr2002 Georg Kresse                                                    
   COPYR  = This file is part of the software VASP. Any use, copying, and all other rights are regul
   COPYR  = If you do not have a valid VASP license, you may not use, copy or distribute this file. 
   VRHFIN =O: s2p4                                                                                  
   LEXCH  = PE                                                                                      
   EATOM  =   432.3788 eV,   31.7789 Ry                                                             
                                                                                                    
   TITEL  = PAW_PBE O 08Apr2002                                                                     
   LULTRA =        F    use ultrasoft PP ?                                                          
   IUNSCR =        1    unscreen: 0-lin 1-nonlin 2-no                                               
   RPACOR =    1.200    partial core radius                                                         
   POMASS =   16.000; ZVAL   =    6.000    mass and valenz                                          
   RCORE  =    1.520    outmost cutoff radius                                                       
   RWIGS  =    1.550; RWIGS  =    0.820    wigner-seitz radius (au A)                               
   ENMAX  =  400.000; ENMIN  =  300.000 eV                                                          
   ICORE  =        2    local potential                                                             
   LCOR   =        T    correct aug charges                                                         
   LPAW   =        T    paw PP                                                                      
   EAUG   =  605.392                                                                                
   DEXC   =    0.000                                                                                
   RMAX   =    1.553    core radius for proj-oper                                                   
   RAUG   =    1.300    factor for augmentation sphere                                              
   RDEP   =    1.550    radius for radial grids                                                     
   RDEPT  =    1.329    core radius for aug-charge                                                  
                                                                                                    
   Atomic configuration                                                                             
    4 entries                                                                                       
     n  l   j            E        occ.                                                              
     1  0  0.50      -514.6923   2.0000                                                             
     2  0  0.50       -23.9615   2.0000                                                             
     2  1  0.50        -9.0305   4.0000                                                             
     3  2  1.50        -9.5241   0.0000                                                             
   Description                                                                                      
     l       E           TYP  RCUT    TYP  RCUT                                                     
     0    -23.9615318     23  1.200                                                                 
     0     -9.5240782     23  1.200                                                                 
     1     -9.0304911     23  1.520                                                                 
     1      8.1634956     23  1.520                                                                 
     2     -9.5240782      7  1.500                                                                 
  local pseudopotential read in
  partial core-charges read in
  partial kinetic energy density read in
  kinetic energy density of atom read in
  atomic valenz-charges read in
  non local Contribution for L=           0  read in
    real space projection operators read in
  non local Contribution for L=           0  read in
    real space projection operators read in
  non local Contribution for L=           1  read in
    real space projection operators read in
  non local Contribution for L=           1  read in
    real space projection operators read in
    PAW grid and wavefunctions read in
 
   number of l-projection  operators is LMAX  =           4
   number of lm-projection operators is LMMAX =           8
 
 POTCAR:    PAW_PBE Sr_sv 07Sep2000               
   SHA256 =  a8389d3481648516ee67182ee030b298d280b37e29cbbf2d8595f040d757c710 Sr_sv/POTCAR          
   COPYR  = (c) Copyright 07Sep2000 Georg Kresse                                                    
   COPYR  = This file is part of the software VASP. Any use, copying, and all other rights are regul
   COPYR  = If you do not have a valid VASP license, you may not use, copy or distribute this file. 
   VRHFIN =Sr: 4s4p5s                                                                               
   LEXCH  = PE                                                                                      
   EATOM  =   843.0319 eV,   61.9611 Ry                                                             
                                                                                                    
   TITEL  = PAW_PBE Sr_sv 07Sep2000                                                                 
   LULTRA =        F    use ultrasoft PP ?                                                          
   IUNSCR =        1    unscreen: 0-lin 1-nonlin 2-no                                               
   RPACOR =    2.200    partial core radius                                                         
   POMASS =   87.620; ZVAL   =   10.000    mass and valenz                                          
   RCORE  =    2.500    outmost cutoff radius                                                       
   RWIGS  =    4.040; RWIGS  =    2.138    wigner-seitz radius (au A)                               
   ENMAX  =  229.353; ENMIN  =  172.014 eV                                                          
   RCLOC  =    2.201    cutoff for local pot                                                        
   LCOR   =        T    correct aug charges                                                         
   LPAW   =        T    paw PP                                                                      
   EAUG   =  366.804                                                                                
   DEXC   =    0.000                                                                                
   RMAX   =    2.547    core radius for proj-oper                                                   
   RAUG   =    1.300    factor for augmentation sphere                                              
   RDEP   =    2.562    radius for radial grids                                                     
   RDEPT  =    2.128    core radius for aug-charge                                                  
                                                                                                    
   Atomic configuration                                                                             
   10 entries                                                                                       
     n  l   j            E        occ.                                                              
     1  0  0.50    -15934.8930   2.0000                                                             
     2  0  0.50     -2157.6250   2.0000                                                             
     2  1  1.50     -1917.0034   6.0000                                                             
     3  0  0.50      -333.7288   2.0000                                                             
     3  1  1.50      -256.0992   6.0000                                                             
     3  2  2.50      -127.9971  10.0000                                                             
     4  0  0.50       -40.8953   2.0000                                                             
     5  0  0.50        -3.5257   1.9990                                                             
     4  1  1.50       -22.8179   6.0000                                                             
     4  2  1.50        -1.2815   0.0010                                                             
   Description                                                                                      
     l       E           TYP  RCUT    TYP  RCUT                                                     
     0    -40.8953213     23  2.480                                                                 
     0     -3.5257161     23  2.480                                                                 
     1    -22.8178632     23  2.500                                                                 
     1    -24.1784458     23  2.500                                                                 
     2     -1.2814598     23  2.500                                                                 
     2      0.2279365     23  2.500                                                                 
  local pseudopotential read in
  partial core-charges read in
  partial kinetic energy density read in
  atomic valenz-charges read in
  non local Contribution for L=           0  read in
    real space projection operators read in
  non local Contribution for L=           0  read in
    real space projection operators read in
  non local Contribution for L=           1  read in
    real space projection operators read in
  non local Contribution for L=           1  read in
    real space projection operators read in
  non local Contribution for L=           2  read in
    real space projection operators read in
  non local Contribution for L=           2  read in
    real space projection operators read in
    PAW grid and wavefunctions read in
 
   number of l-projection  operators is LMAX  =           6
   number of lm-projection operators is LMMAX =          18
 
 POTCAR:    PAW_PBE Ti_sv 26Sep2005               
   SHA256 =  4d747badb5a5ea28d858fbac70885b3f8929d6fd9e5b0dbe1ecb9878dc164da1 Ti_sv/POTCAR          
   COPYR  = (c) Copyright 26Sep2005 Georg Kresse                                                    
   COPYR  = This file is part of the software VASP. Any use, copying, and all other rights are regul
   COPYR  = If you do not have a valid VASP license, you may not use, copy or distribute this file. 
   VRHFIN =Ti: 3p4s3d                                                                               
   LEXCH  = PE                                                                                      
   EATOM  =  1588.0892 eV,  116.7213 Ry                                                             
                                                                                                    
   TITEL  = PAW_PBE Ti_sv 26Sep2005                                                                 
   LULTRA =        F    use ultrasoft PP ?                                                          
   IUNSCR =        1    unscreen: 0-lin 1-nonlin 2-no                                               
   RPACOR =    2.000    partial core radius                                                         
   POMASS =   47.880; ZVAL   =   12.000    mass and valenz                                          
   RCORE  =    2.300    outmost cutoff radius                                                       
   RWIGS  =    2.300; RWIGS  =    1.217    wigner-seitz radius (au A)                               
   ENMAX  =  274.610; ENMIN  =  205.957 eV                                                          
   ICORE  =        3    local potential                                                             
   LCOR   =        T    correct aug charges                                                         
   LPAW   =        T    paw PP                                                                      
   EAUG   =  482.848                                                                                
   RMAX   =    2.348    core radius for proj-oper                                                   
   RAUG   =    1.300    factor for augmentation sphere                                              
   RDEP   =    2.381    radius for radial grids                                                     
   RDEPT  =    1.930    core radius for aug-charge                                                  
                                                                                                    
   Atomic configuration                                                                             
    8 entries                                                                                       
     n  l   j            E        occ.                                                              
     1  0  0.50     -4865.3608   2.0000                                                             
     2  0  0.50      -533.1368   2.0000                                                             
     2  1  1.50      -440.5031   6.0000                                                             
     3  0  0.50       -59.3186   2.0000                                                             
     4  0  0.50        -3.7291   1.0000                                                             
     3  1  1.50       -35.7012   6.0000                                                             
     3  2  2.50        -1.9157   3.0000                                                             
     4  3  2.50        -1.3606   0.0000                                                             
   Description                                                                                      
     l       E           TYP  RCUT    TYP  RCUT                                                     
     0    -59.3185931     23  1.800                                                                 
     0     -3.7290822     23  2.300                                                                 
     1    -35.7012045     23  2.300                                                                 
     1     -1.3605826     23  2.300                                                                 
     2     -1.9156920     23  2.300                                                                 
     2     -0.0236318     23  2.300                                                                 
     3     -1.3605826     23  2.300                                                                 
  local pseudopotential read in
  partial core-charges read in
  partial kinetic energy density read in
  atomic valenz-charges read in
  non local Contribution for L=           0  read in
    real space projection operators read in
  non local Contribution for L=           0  read in
    real space projection operators read in
  non local Contribution for L=           1  read in
    real space projection operators read in
  non local Contribution for L=           1  read in
    real space projection operators read in
  non local Contribution for L=           2  read in
    real space projection operators read in
  non local Contribution for L=           2  read in
    real space projection operators read in
    PAW grid and wavefunctions read in
 
   number of l-projection  operators is LMAX  =           6
   number of lm-projection operators is LMMAX =          18
 
 POTCAR:    PAW_PBE H 15Jun2001                   
   SHA256 =  030f79b5d3ab3cf0e668861823c8fb652ff669f3e15e46930bd03bfd63a607b6 H/POTCAR              
   COPYR  = (c) Copyright 15Jun2001 Georg Kresse                                                    
   COPYR  = This file is part of the software VASP. Any use, copying, and all other rights are regul
   COPYR  = If you do not have a valid VASP license, you may not use, copy or distribute this file. 
   VRHFIN =H: ultrasoft test                                                                        
   LEXCH  = PE                                                                                      
   EATOM  =    12.4884 eV,    0.9179 Ry                                                             
                                                                                                    
   TITEL  = PAW_PBE H 15Jun2001                                                                     
   LULTRA =        F    use ultrasoft PP ?                                                          
   IUNSCR =        0    unscreen: 0-lin 1-nonlin 2-no                                               
   RPACOR =    0.000    partial core radius                                                         
   POMASS =    1.000; ZVAL   =    1.000    mass and valenz                                          
   RCORE  =    1.100    outmost cutoff radius                                                       
   RWIGS  =    0.700; RWIGS  =    0.370    wigner-seitz radius (au A)                               
   ENMAX  =  250.000; ENMIN  =  200.000 eV                                                          
   RCLOC  =    0.701    cutoff for local pot                                                        
   LCOR   =        T    correct aug charges                                                         
   LPAW   =        T    paw PP                                                                      
   EAUG   =  400.000                                                                                
   RMAX   =    1.123    core radius for proj-oper                                                   
   RAUG   =    1.200    factor for augmentation sphere                                              
   RDEP   =    1.112    radius for radial grids                                                     
   RDEPT  =    0.926    core radius for aug-charge                                                  
                                                                                                    
   Atomic configuration                                                                             
    2 entries                                                                                       
     n  l   j            E        occ.                                                              
     1  0  0.50        -6.4927   1.0000                                                             
     2  1  0.50        -3.4015   0.0000                                                             
   Description                                                                                      
     l       E           TYP  RCUT    TYP  RCUT                                                     
     0     -6.4927494     23  1.100                                                                 
     0      6.8029130     23  1.100                                                                 
     1     -4.0817478     23  1.100                                                                 
  local pseudopotential read in
  atomic valenz-charges read in
  non local Contribution for L=           0  read in
    real space projection operators read in
  non local Contribution for L=           0  read in
    real space projection operators read in
  non local Contribution for L=           1  read in
    real space projection operators read in
    PAW grid and wavefunctions read in
 
   number of l-projection  operators is LMAX  =           3
   number of lm-projection operators is LMMAX =           5
 
 Optimization of the real space projectors (new method)

 maximal supplied QI-value         = 15.12
 optimisation between [QCUT,QGAM] = [ 11.34, 22.83] = [ 36.00,145.93] Ry 
 Optimized for a Real-space Cutoff    1.39 Angstroem

   l    n(q)    QCUT    max X(q) W(low)/X(q) W(high)/X(q)  e(spline) 
   2      9    11.338    60.898    0.39E-03    0.42E-03    0.21E-06
   2      9    11.338    58.894    0.40E-03    0.42E-03    0.22E-06
   0      9    11.338   109.617    0.13E-03    0.20E-04    0.13E-06
   0      9    11.338    75.026    0.13E-03    0.20E-04    0.13E-06
   1      9    11.338    16.344    0.33E-04    0.24E-03    0.18E-06
   1      9    11.338    10.160    0.26E-04    0.19E-03    0.15E-06
 Optimization of the real space projectors (new method)

 maximal supplied QI-value         = 24.76
 optimisation between [QCUT,QGAM] = [ 11.39, 22.77] = [ 36.31,145.25] Ry 
 Optimized for a Real-space Cutoff    1.00 Angstroem

   l    n(q)    QCUT    max X(q) W(low)/X(q) W(high)/X(q)  e(spline) 
   0      7    11.387    20.381    0.39E-03    0.13E-02    0.15E-06
   0      7    11.387    15.268    0.42E-03    0.14E-02    0.17E-06
   1      6    11.387     5.964    0.41E-03    0.11E-02    0.17E-06
   1      6    11.387     5.382    0.39E-03    0.87E-03    0.15E-06
 Optimization of the real space projectors (new method)

 maximal supplied QI-value         = 15.12
 optimisation between [QCUT,QGAM] = [ 11.34, 22.83] = [ 36.00,145.93] Ry 
 Optimized for a Real-space Cutoff    1.56 Angstroem

   l    n(q)    QCUT    max X(q) W(low)/X(q) W(high)/X(q)  e(spline) 
   0     11    11.338    11.565    0.26E-04    0.80E-05    0.70E-07
   0     11    11.338    10.214    0.41E-04    0.15E-04    0.15E-06
   1     10    11.338   189.983    0.18E-03    0.52E-04    0.42E-06
   1     10    11.338   193.105    0.19E-03    0.52E-04    0.42E-06
   2     10    11.338   115.941    0.22E-03    0.42E-03    0.43E-06
   2     10    11.338    76.444    0.21E-03    0.41E-03    0.42E-06
 Optimization of the real space projectors (new method)

 maximal supplied QI-value         = 16.25
 optimisation between [QCUT,QGAM] = [ 11.38, 22.75] = [ 36.24,144.96] Ry 
 Optimized for a Real-space Cutoff    1.27 Angstroem

   l    n(q)    QCUT    max X(q) W(low)/X(q) W(high)/X(q)  e(spline) 
   0      9    11.376    12.277    0.53E-04    0.25E-04    0.25E-07
   0      9    11.376    11.419    0.89E-04    0.67E-05    0.35E-07
   1      8    11.376     4.010    0.13E-03    0.11E-03    0.29E-07
   1      8    11.376     6.182    0.94E-04    0.19E-03    0.11E-06
   2      8    11.376    47.177    0.13E-03    0.88E-03    0.24E-06
   2      8    11.376    42.437    0.13E-03    0.86E-03    0.23E-06
 Optimization of the real space projectors (new method)

 maximal supplied QI-value         = 34.20
 optimisation between [QCUT,QGAM] = [ 11.29, 22.57] = [ 35.68,142.71] Ry 
 Optimized for a Real-space Cutoff    1.16 Angstroem

   l    n(q)    QCUT    max X(q) W(low)/X(q) W(high)/X(q)  e(spline) 
   0      8    11.287    19.460    0.40E-03    0.73E-03    0.16E-06
   0      8    11.287    12.209    0.38E-03    0.70E-03    0.15E-06
   1      7    11.287     4.655    0.22E-03    0.25E-04    0.22E-06
 -----------------------------------------------------------------------------
|                                                                             |
|               ----> ADVICE to this user running VASP <----                  |
|                                                                             |
|     You enforced a specific xc type in the INCAR file but a different       |
|     type was found in the POTCAR file.                                      |
|     I HOPE YOU KNOW WHAT YOU ARE DOING!                                     |
|                                                                             |
 -----------------------------------------------------------------------------

  PAW_PBE Au 04Oct2007                  :
 energy of atom  1       EATOM= -926.0867
 kinetic energy error for atom=    0.0042 (will be added to EATOM!!)
  PAW_PBE O 08Apr2002                   :
 energy of atom  2       EATOM= -432.3788
 kinetic energy error for atom=    0.0224 (will be added to EATOM!!)
  PAW_PBE Sr_sv 07Sep2000               :
 energy of atom  3       EATOM= -843.0319
 kinetic energy error for atom=    0.0012 (will be added to EATOM!!)
  PAW_PBE Ti_sv 26Sep2005               :
 energy of atom  4       EATOM=-1588.0892
 kinetic energy error for atom=    0.0046 (will be added to EATOM!!)
  PAW_PBE H 15Jun2001                   :
 energy of atom  5       EATOM=  -12.4884
 kinetic energy error for atom=    0.0020 (will be added to EATOM!!)
 
 
 POSCAR: Au O  Sr Ti H
  positions in cartesian coordinates
  No initial velocities read in
 exchange correlation table for  LEXCH =       17
   RHO(1)=    0.500       N(1)  =     2000
   RHO(2)=  100.500       N(2)  =     4000

 VTST: version 4.1, (05/19/21)

 CHAIN: initializing optimizer
 
 OPT: Using VASP Dynamics algorithm
 CHAIN: Read ICHAIN            0
 
 POSCAR: Au O  Sr Ti H
  positions in cartesian coordinates
  No initial velocities read in
 


--------------------------------------------------------------------------------------------------------


 ion  position               nearest neighbor table
   1  0.719  0.526  0.754-  15 2.72  16 2.72  14 2.78  44 2.82   2 2.83  29 2.97  46 3.06
   2  0.625  0.567  0.704- 264 2.08  15 2.81   1 2.83  46 2.87  48 2.88  16 2.92  12 2.92  36 3.07
                            11 3.30   5 3.52 380 3.71
   3  0.719  0.259  0.692- 294 2.07 253 2.08  32 2.66  43 2.78  27 2.83 401 3.05 370 4.02 371 4.04

   4  0.291  0.746  0.699- 310 2.06 266 2.06   9 2.78  23 2.83  50 3.07  42 3.37  45 3.52 368 4.24
                           372 4.26
   5  0.514  0.604  0.777-  26 2.69  48 2.74  13 2.84  47 2.91  12 2.91  39 2.94  16 3.02   6 3.13
                            49 3.40  31 3.48   2 3.52
   6  0.577  0.725  0.793-  18 2.73  36 2.73  17 2.78  47 2.81  13 2.99   5 3.13  48 3.14  16 3.47

   7  0.550  0.384  0.830-  10 2.76  33 2.80  29 2.86  20 2.87  31 2.97  34 2.98  12 3.04  41 3.40

   8  0.242  0.467  0.709- 309 2.11  19 2.68  24 2.80  45 2.84  40 2.96  35 3.08 378 4.16
   9  0.282  0.660  0.766-  45 2.70  50 2.76  30 2.77   4 2.78  24 2.80
  10  0.602  0.289  0.788-   7 2.76  41 2.79  32 2.79  27 2.80  43 2.80  25 3.12  34 3.26
  11  0.515  0.483  0.678- 279 2.11 247 2.16  26 2.70  12 2.78  49 2.90  34 2.90 389 3.13   2 3.30
                            46 3.33 375 3.54  37 3.59 386 4.05
  12  0.562  0.486  0.763-  11 2.78  34 2.79  49 2.84  29 2.86  31 2.89   5 2.91   2 2.92  46 2.99
                            16 3.01   7 3.04
  13  0.463  0.695  0.830-  50 2.81   5 2.84  30 2.85  47 2.86  39 2.90  18 2.92   6 2.99
  14  0.765  0.431  0.705- 254 2.01  44 2.73   1 2.78  46 2.79  43 2.88 363 3.75 370 4.22
  15  0.734  0.616  0.694- 292 2.09 250 2.11  36 2.67   1 2.72   2 2.81  28 3.24 380 3.42 365 3.73

  16  0.636  0.583  0.800-   1 2.72  47 2.77  36 2.78  31 2.82   2 2.92  12 3.01   5 3.02  29 3.23
                             6 3.47
  17  0.595  0.785  0.713- 257 2.09   6 2.78  28 2.79  48 2.94  18 2.95  36 3.11 379 4.17 384 4.32

  18  0.484  0.779  0.757-   6 2.73  23 2.82  50 2.86  42 2.86  13 2.92  17 2.95  48 3.39
  19  0.350  0.501  0.697- 291 2.10   8 2.68  49 2.88  37 2.89  24 2.90  40 2.95  45 3.00  26 3.05
                           368 4.13 369 4.27
  20  0.431  0.372  0.816-  33 2.78  21 2.80   7 2.87  49 2.92  41 2.94  40 2.98  38 3.03  34 3.17

  21  0.373  0.299  0.756-  37 2.77  35 2.78  20 2.80  40 2.82  41 2.86  22 2.86
  22  0.441  0.228  0.697- 302 2.01 289 2.15  41 2.74  25 2.78  21 2.86  37 3.58 376 3.88 367 4.35

  23  0.389  0.816  0.707- 290 2.08  42 2.77  50 2.80  18 2.82   4 2.83 372 3.65 384 4.14
  24  0.290  0.536  0.778-   9 2.80   8 2.80  38 2.81  40 2.87  45 2.89  30 2.90  19 2.90
  25  0.555  0.208  0.712- 311 2.14  22 2.78  41 2.84  27 2.86  32 2.87  10 3.12 376 3.93
  26  0.454  0.580  0.703- 291 2.11   5 2.69  11 2.70  42 2.73  49 2.86  48 2.88  19 3.05 386 3.62

  27  0.614  0.319  0.698- 263 2.04  43 2.77  10 2.80   3 2.83  46 2.84  25 2.86  34 2.86  32 3.45
                           370 3.58 375 4.22
  28  0.705  0.758  0.688- 293 2.05 250 2.05  36 2.63  17 2.79 400 3.13  15 3.24 379 3.80 380 4.18

  29  0.656  0.441  0.812-  44 2.85  12 2.86   7 2.86  31 2.86  43 2.90   1 2.97  16 3.23  46 3.46

  30  0.368  0.618  0.820-   9 2.77  39 2.78  38 2.84  13 2.85  24 2.90  50 2.94
  31  0.571  0.510  0.857-  33 2.77  16 2.82  29 2.86  12 2.89  47 2.90  39 2.92   7 2.97   5 3.48

  32  0.665  0.194  0.752-   3 2.66  10 2.79  25 2.87  27 3.45  43 3.50
  33  0.473  0.451  0.879-  31 2.77  20 2.78  39 2.78   7 2.80  38 2.82
  34  0.516  0.377  0.734-  12 2.79  41 2.81  49 2.86  27 2.86  11 2.90   7 2.98  37 3.10  20 3.17
                            10 3.26  46 3.60 375 4.19
  35  0.284  0.337  0.703- 267 2.06  21 2.78  40 2.82  37 2.90   8 3.08 369 3.54 378 4.09
  36  0.669  0.681  0.749-  28 2.63  15 2.67   6 2.73  16 2.78   2 3.07  17 3.11  48 3.27
  37  0.398  0.382  0.690- 303 2.03 289 2.13  21 2.77  19 2.89  35 2.90  40 3.00  49 3.06  34 3.10
                           369 3.38  22 3.58  11 3.59 375 3.78
  38  0.376  0.492  0.834-  24 2.81  33 2.82  30 2.84  49 2.84  40 2.85  39 2.89  20 3.03
  39  0.463  0.573  0.863-  33 2.78  30 2.78  47 2.83  38 2.89  13 2.90  31 2.92   5 2.94
  40  0.327  0.414  0.770-  21 2.82  35 2.82  38 2.85  24 2.87  19 2.95   8 2.96  20 2.98  37 3.00
                            49 3.09
  41  0.487  0.268  0.775-  22 2.74  10 2.79  34 2.81  25 2.84  21 2.86  20 2.94   7 3.40
  42  0.426  0.699  0.699- 256 2.03  26 2.73  23 2.77  50 2.81  18 2.86  48 2.94   4 3.37 386 4.01
                           368 4.13
  43  0.700  0.346  0.757-  27 2.77   3 2.78  10 2.80  44 2.81  14 2.88  29 2.90  46 3.04  32 3.50

  44  0.774  0.429  0.796-  14 2.73  43 2.81   1 2.82  29 2.85
  45  0.256  0.592  0.695- 265 2.03 310 2.11   9 2.70   8 2.84  24 2.89  19 3.00   4 3.52 368 3.58
                           373 3.71
  46  0.648  0.441  0.697- 279 2.19  14 2.79  27 2.84   2 2.87  12 2.99  43 3.04   1 3.06  11 3.33
                            29 3.46 370 3.49  34 3.60
  47  0.565  0.640  0.861-  16 2.77   6 2.81  39 2.83  13 2.86  31 2.90   5 2.91
  48  0.546  0.665  0.701- 280 2.11   5 2.74   2 2.88  26 2.88  42 2.94  17 2.94   6 3.14  36 3.27
                            18 3.39 386 3.49
  49  0.443  0.475  0.756-  38 2.84  12 2.84  26 2.86  34 2.86  19 2.88  11 2.90  20 2.92  37 3.06
                            40 3.09   5 3.40
  50  0.373  0.737  0.778-   9 2.76  23 2.80  42 2.81  13 2.81  18 2.86  30 2.94   4 3.07
  51  0.250  0.188  0.454- 448 1.97 418 2.13 319 2.73 342 2.81 360 2.81 327 2.85
  52  0.750  0.938  0.455- 417 1.95 444 2.00 350 2.82 339 2.84 322 2.85 332 2.88
  53  0.749  0.689  0.457- 432 1.98 446 2.04 325 2.78 362 2.84 348 2.84 316 2.88
  54  0.750  0.438  0.456- 422 1.99 458 2.01 323 2.71 347 2.83 349 2.84 359 2.84
  55  0.750  0.190  0.456- 445 1.98 423 2.11 324 2.75 335 2.79 358 2.85 346 2.85
  56  0.418  0.936  0.454- 424 2.00 440 2.01 357 2.76 345 2.79 329 2.87 320 2.92
  57  0.417  0.685  0.455- 414 1.91 443 2.05 356 2.77 344 2.78 321 2.84 331 2.91
  58  0.417  0.435  0.454- 415 1.96 442 2.01 343 2.77 355 2.77 333 2.84 318 2.85
  59  0.085  0.687  0.453- 439 1.97 413 2.09 352 2.75 340 2.80 330 2.81 336 2.94
  60  0.084  0.937  0.453- 436 1.99 412 2.11 353 2.77 341 2.79 326 2.90 338 2.91
  61  0.083  0.437  0.453- 438 1.97 421 2.11 361 2.76 351 2.78 328 2.80 317 2.93
  62  0.084  0.187  0.453- 437 1.98 433 2.12 360 2.76 385 2.78 337 2.87 327 2.88
  63  0.917  0.812  0.454- 434 1.98 411 2.11 362 2.75 341 2.80 339 2.80 336 2.87
  64  0.916  0.562  0.454- 435 1.98 410 2.12 349 2.76 316 2.81 340 2.82 317 2.86
  65  0.251  0.439  0.455- 449 1.98 420 2.07 318 2.70 343 2.81 351 2.85 328 2.86
  66  0.916  0.062  0.454- 455 1.99 430 2.07 358 2.79 385 2.81 332 2.85 338 2.89
  67  0.916  0.310  0.455- 456 1.97 429 2.10 335 2.76 359 2.84 337 2.84 361 2.85
  68  0.417  0.187  0.454- 441 1.98 416 2.08 354 2.78 342 2.79 334 2.81 319 2.87
  69  0.252  0.687  0.456- 419 1.99 450 2.03 321 2.76 344 2.79 352 2.87 330 2.90
  70  0.916  0.937  0.454- 455 1.98 411 2.11 339 2.79 341 2.79 332 2.88 338 2.90
  71  0.583  0.189  0.455- 452 1.98 426 2.09 334 2.72 324 2.79 354 2.82 346 2.84
  72  1.000  0.125  0.499- 430 1.96 433 1.99 385 2.75 337 2.78 338 2.80
  73  0.584  0.810  0.455- 454 1.97 431 2.10 325 2.72 331 2.76 350 2.84 357 2.85
  74  1.000  0.373  0.499- 429 1.94 421 1.96 361 2.75 337 2.77 317 2.87 381 3.51
  75  1.000  0.627  0.498- 413 1.94 410 1.95 340 2.72 336 2.77 317 2.82
  76  0.334  0.125  0.498- 416 1.96 418 2.01 342 2.74 319 2.74 320 2.78 367 3.45
  77  0.000  0.875  0.500- 412 1.97 411 1.97 341 2.78 336 2.79 338 2.79
  78  0.334  0.874  0.499- 424 1.97 425 2.01 321 2.74 345 2.76 320 2.84 372 3.13
  79  0.666  0.126  0.499- 426 1.96 423 2.01 324 2.72 346 2.76 322 2.81 371 3.39
  80  0.336  0.625  0.504- 414 1.93 419 2.08 368 2.74 321 2.81 318 2.81 344 2.92
  81  0.334  0.378  0.503- 415 1.94 420 2.08 318 2.70 369 2.71 343 2.88 319 2.91
  82  0.666  0.378  0.503- 428 1.94 422 2.06 323 2.70 370 2.74 347 2.89 324 2.92
  83  0.915  0.687  0.453- 434 1.97 410 2.09 316 2.75 340 2.79 362 2.81 336 2.94
  84  0.916  0.435  0.452- 435 1.98 429 2.11 359 2.73 361 2.76 349 2.82 317 2.96
  85  0.916  0.186  0.452- 456 1.98 430 2.11 358 2.74 385 2.77 335 2.82 337 2.92
  86  0.583  0.936  0.454- 451 2.00 431 2.06 357 2.77 350 2.79 329 2.86 322 2.89
  87  0.583  0.686  0.455- 427 1.91 454 2.02 356 2.78 348 2.80 325 2.83 331 2.86
  88  0.583  0.439  0.456- 453 2.00 428 2.02 333 2.71 323 2.79 355 2.84 347 2.85
  89  0.250  0.936  0.454- 425 1.94 447 2.01 353 2.78 345 2.78 320 2.90 326 2.92
  90  0.665  0.626  0.503- 427 1.93 432 2.06 380 2.72 325 2.81 323 2.82 348 2.88
  91  0.585  0.562  0.455- 427 1.99 453 2.01 333 2.77 348 2.79 323 2.79 356 2.83
  92  0.583  0.062  0.455- 451 2.00 426 2.03 354 2.80 346 2.82 322 2.85 329 2.85
  93  0.917  0.687  0.361- 434 1.97 340 2.79 316 2.79
  94  0.917  0.437  0.361- 435 1.97 361 2.79 359 2.79
  95  0.917  0.188  0.361- 456 1.97 385 2.79 358 2.79
  96  0.583  0.938  0.361- 451 1.97 357 2.79 350 2.79
  97  0.583  0.687  0.361- 454 1.97 356 2.79 348 2.79
  98  0.583  0.437  0.361- 453 1.97 355 2.79 347 2.79
  99  0.583  0.188  0.361- 452 1.97 354 2.79 346 2.79
 100  0.250  0.938  0.361- 447 1.97 353 2.79 345 2.79
 101  0.917  0.938  0.361- 455 1.97 341 2.79 339 2.79
 102  0.250  0.687  0.361- 450 1.97 352 2.79 344 2.79
 103  0.250  0.188  0.361- 448 1.97 360 2.79 342 2.79
 104  0.750  0.938  0.361- 444 1.97 350 2.79 339 2.79
 105  0.750  0.687  0.361- 446 1.97 348 2.79 316 2.79
 106  0.750  0.437  0.361- 458 1.97 347 2.79 359 2.79
 107  0.750  0.188  0.361- 445 1.97 346 2.79 358 2.79
 108  0.417  0.938  0.361- 440 1.97 345 2.79 357 2.79
 109  0.417  0.687  0.361- 443 1.97 344 2.79 356 2.79
 110  0.417  0.437  0.361- 442 1.97 343 2.79 355 2.79
 111  0.250  0.437  0.361- 449 1.97 351 2.79 343 2.79
 112  0.083  0.063  0.361- 436 1.97 385 2.79 360 2.79
 113  0.083  0.312  0.361- 437 1.97 361 2.79 351 2.79
 114  0.083  0.563  0.361- 438 1.97 352 2.79 340 2.79
 115  0.917  0.312  0.361- 456 1.97 361 2.79 359 2.79
 116  0.917  0.063  0.361- 455 1.97 385 2.79 358 2.79
 117  0.583  0.812  0.361- 454 1.97 357 2.79 350 2.79
 118  0.583  0.563  0.361- 453 1.97 356 2.79 348 2.79
 119  0.583  0.312  0.361- 452 1.97 355 2.79 347 2.79
 120  0.583  0.063  0.361- 451 1.97 354 2.79 346 2.79
 121  0.250  0.812  0.361- 450 1.97 353 2.79 345 2.79
 122  0.250  0.563  0.361- 449 1.97 352 2.79 344 2.79
 123  0.250  0.312  0.361- 448 1.97 351 2.79 343 2.79
 124  0.250  0.063  0.361- 447 1.97 360 2.79 342 2.79
 125  0.750  0.812  0.361- 446 1.97 350 2.79 339 2.79
 126  0.750  0.563  0.361- 458 1.97 348 2.79 316 2.79
 127  0.750  0.312  0.361- 445 1.97 347 2.79 359 2.79
 128  0.750  0.063  0.361- 444 1.97 346 2.79 358 2.79
 129  0.417  0.812  0.361- 443 1.97 345 2.79 357 2.79
 130  0.417  0.563  0.361- 442 1.97 344 2.79 356 2.79
 131  0.417  0.312  0.361- 441 1.97 343 2.79 355 2.79
 132  0.417  0.063  0.361- 440 1.97 342 2.79 354 2.79
 133  0.083  0.812  0.361- 439 1.97 353 2.79 341 2.79
 134  0.417  0.188  0.361- 441 1.97 342 2.79 354 2.79
 135  0.083  0.938  0.361- 436 1.97 353 2.79 341 2.79
 136  0.083  0.687  0.361- 439 1.97 352 2.79 340 2.79
 137  0.083  0.437  0.361- 438 1.97 361 2.79 351 2.79
 138  0.833  0.500  0.407- 458 1.97 435 1.97 316 2.79 359 2.79 349 2.87
 139  0.833  0.750  0.407- 446 1.97 434 1.97 339 2.79 316 2.79 362 2.87
 140  0.083  0.062  0.454- 436 1.98 433 2.11 385 2.81 360 2.81 326 2.85 338 2.87
 141  0.084  0.312  0.454- 437 1.97 421 2.09 351 2.80 361 2.81 337 2.84 327 2.89
 142  0.084  0.562  0.454- 438 1.98 413 2.11 328 2.76 352 2.79 340 2.81 317 2.89
 143  0.084  0.812  0.454- 439 1.98 412 2.11 330 2.77 353 2.80 341 2.81 336 2.87
 144  0.417  0.062  0.455- 416 1.96 440 2.00 354 2.82 342 2.83 320 2.84 329 2.84
 145  0.415  0.311  0.457- 415 1.92 441 2.04 334 2.81 319 2.82 343 2.84 355 2.88
 146  0.416  0.559  0.458- 414 1.97 442 2.02 333 2.74 318 2.74 344 2.88 356 2.90
 147  0.417  0.810  0.455- 443 1.97 424 2.09 321 2.74 331 2.78 357 2.85 345 2.85
 148  0.749  0.064  0.453- 444 1.99 423 2.02 346 2.76 358 2.78 322 2.90 332 2.93
 149  0.748  0.314  0.455- 422 2.00 445 2.02 347 2.75 324 2.82 359 2.83 335 2.92
 150  0.748  0.564  0.454- 432 1.99 458 2.01 348 2.74 323 2.76 316 2.80 349 2.92
 151  0.749  0.813  0.453- 446 1.97 417 2.09 350 2.76 339 2.79 325 2.82 362 2.88
 152  0.250  0.062  0.454- 447 1.98 418 2.11 342 2.80 360 2.81 320 2.84 326 2.88
 153  0.916  0.317  0.550- 429 1.84 409 2.23 363 2.74 335 2.83 337 2.87 381 3.05
 154  0.252  0.314  0.454- 420 1.97 448 2.01 343 2.74 319 2.78 351 2.82 327 2.95
 155  0.252  0.565  0.454- 419 1.99 449 2.01 344 2.74 318 2.76 352 2.81 328 2.93
 156  0.250  0.810  0.456- 450 1.99 425 2.07 321 2.76 330 2.82 345 2.84 353 2.85
 157  0.833  0.250  0.407- 445 1.97 456 1.97 359 2.79 358 2.79 335 2.88
 158  0.584  0.315  0.454- 428 1.95 452 2.02 347 2.76 355 2.79 334 2.85 324 2.87
 159  0.833  0.000  0.407- 444 1.97 455 1.97 358 2.79 339 2.79 332 2.99
 160  0.500  0.500  0.407- 453 1.97 442 1.97 355 2.79 356 2.79 333 2.80
 161  0.083  0.188  0.361- 437 1.97 385 2.79 360 2.79
 162  0.000  0.000  0.407- 455 1.97 436 1.97 385 2.79 341 2.79 338 2.99
 163  0.000  0.250  0.407- 456 1.97 437 1.97 361 2.79 385 2.79 337 2.93
 164  0.000  0.500  0.407- 435 1.97 438 1.97 340 2.79 361 2.79 317 2.99
 165  0.000  0.750  0.407- 434 1.97 439 1.97 341 2.79 340 2.79 336 2.98
 166  0.333  0.000  0.407- 440 1.97 447 1.97 342 2.79 345 2.79 320 2.96
 167  0.333  0.250  0.407- 441 1.97 448 1.97 343 2.79 342 2.79 319 2.87
 168  0.333  0.500  0.407- 442 1.97 449 1.97 343 2.79 344 2.79 318 2.82
 169  0.333  0.750  0.407- 443 1.97 450 1.97 345 2.79 344 2.79 321 2.84
 170  0.667  0.000  0.407- 444 1.97 451 1.97 346 2.79 350 2.79 322 2.96
 171  0.667  0.250  0.407- 445 1.97 452 1.97 347 2.79 346 2.79 324 2.88
 172  0.667  0.500  0.407- 458 1.97 453 1.97 347 2.79 348 2.79 323 2.81
 173  0.667  0.750  0.407- 446 1.97 454 1.97 350 2.79 348 2.79 325 2.85
 174  0.167  0.000  0.407- 447 1.97 436 1.97 360 2.79 353 2.79 326 2.99
 175  0.167  0.250  0.407- 448 1.97 437 1.97 351 2.79 360 2.79 327 2.98
 176  0.167  0.500  0.407- 449 1.97 438 1.97 351 2.79 352 2.79 328 2.86
 177  0.167  0.750  0.407- 450 1.97 439 1.97 353 2.79 352 2.79 330 2.89
 178  0.500  0.000  0.407- 451 1.97 440 1.97 354 2.79 357 2.79 329 2.95
 179  0.500  0.250  0.407- 452 1.97 441 1.97 355 2.79 354 2.79 334 2.85
 180  0.500  0.750  0.407- 454 1.97 443 1.97 357 2.79 356 2.79 331 2.91
 181  0.167  0.124  0.499- 418 1.96 433 2.00 326 2.75 360 2.76 327 2.78
 182  0.917  0.064  0.548- 430 1.84 387 2.22 338 2.72 332 2.73 315 3.17 383 3.18
 183  0.168  0.873  0.500- 425 1.93 412 2.02 330 2.72 353 2.79 326 2.86 374 3.55
 184  0.252  0.188  0.547- 418 1.87 395 2.13 319 2.65 327 2.72 367 3.13 377 3.33
 185  0.749  0.934  0.548- 417 1.83 402 2.27 322 2.77 332 2.78 379 2.92 364 3.15
 186  0.752  0.680  0.553- 432 1.96 400 1.96 380 2.65 365 2.85 362 2.97 325 3.01
 187  0.753  0.434  0.549- 422 1.92 399 2.06 370 2.74 349 2.82 323 2.87 363 2.91
 188  0.423  0.444  0.546- 408 1.88 415 2.06 333 2.61 318 2.84 375 2.88 369 3.13
 189  0.423  0.688  0.547- 414 1.95 398 2.00 331 2.67 386 2.77 321 2.87 368 2.94
 190  0.748  0.184  0.551- 423 1.94 401 1.95 324 2.79 335 2.89 371 3.00 383 3.17
 191  0.416  0.937  0.546- 424 1.85 396 2.26 320 2.71 329 2.72 372 2.88 384 3.07
 192  0.084  0.939  0.546- 412 1.84 406 2.19 326 2.67 338 2.68 374 3.27 366 3.34
 193  0.416  0.191  0.546- 397 1.85 416 2.03 319 2.72 334 2.74 376 3.10 367 3.24
 194  0.087  0.690  0.545- 413 1.85 405 2.22 330 2.62 336 2.72 373 2.79
 195  0.082  0.438  0.545- 421 1.84 404 2.23 317 2.67 328 2.68 378 3.09 381 3.24
 196  0.084  0.189  0.545- 433 1.84 403 2.18 327 2.63 337 2.66 315 3.35 377 3.39
 197  0.499  0.125  0.500- 416 1.98 426 2.00 334 2.73 354 2.78 329 2.82 376 3.19
 198  1.000  0.500  0.594- 457 1.95 404 1.95 317 2.61 381 2.91 382 3.07
 199  1.000  0.754  0.592- 405 1.94 407 1.96 336 2.57 366 2.83 382 3.31
 200  0.335  0.254  0.593- 397 1.90 395 2.06 369 2.67 319 2.70 367 3.07
 201  0.334  1.000  0.592- 396 2.00 394 2.03 320 2.59 372 2.73 367 2.75
 202  1.000  0.999  0.593- 387 2.00 406 2.01 338 2.59 315 2.80 366 2.91
 203  0.999  0.250  0.591- 409 1.90 403 2.02 337 2.58 381 2.85 315 3.02
 204  0.333  0.497  0.591- 408 1.85 390 2.16 318 2.70 369 2.75 368 2.85
 205  0.336  0.740  0.591- 398 1.92 391 2.06 368 2.59 321 2.69 372 3.11
 206  0.664  0.247  0.591- 392 1.89 401 2.14 324 2.63 370 2.78 371 2.82
 207  0.666  0.000  0.592- 393 2.01 402 2.01 322 2.59 379 2.71 371 2.83
 208  0.666  0.742  0.590- 388 1.96 400 2.04 380 2.58 325 2.64 379 3.14
 209  0.667  0.493  0.591- 389 1.81 399 2.13 370 2.71 323 2.71 380 2.98
 210  0.168  0.998  0.592- 394 1.98 406 2.01 326 2.57 377 2.91 374 2.91
 211  0.168  0.249  0.593- 395 1.94 403 2.03 327 2.61 378 2.77 377 2.94
 212  0.171  0.750  0.595- 391 1.86 405 2.15 330 2.76 373 2.77 374 2.83
 213  0.248  0.436  0.549- 390 1.94 420 1.98 369 2.65 318 2.81 328 2.84 378 3.06
 214  0.165  0.502  0.588- 390 1.83 404 2.05 328 2.57 373 2.81 378 3.00
 215  0.249  0.683  0.552- 391 1.96 419 1.98 368 2.75 373 2.90 330 2.91 321 2.92
 216  0.581  0.186  0.549- 426 1.93 392 1.98 334 2.73 324 2.82 376 2.93 371 3.08
 217  0.915  0.813  0.547- 411 1.84 407 2.18 362 2.69 336 2.73 364 3.21 366 3.28
 218  0.917  0.565  0.547- 410 1.84 457 2.22 317 2.71 349 2.74 365 2.82
 219  0.582  0.560  0.549- 389 1.89 427 2.09 386 2.69 333 2.75 380 2.83 323 2.87
 220  0.586  0.815  0.550- 431 1.91 388 2.06 325 2.75 331 2.82 379 2.92 384 3.03
 221  0.583  0.312  0.546- 428 1.89 392 2.11 334 2.74 324 2.76 375 2.77 370 2.88
 222  0.583  0.063  0.547- 426 1.84 393 2.21 329 2.72 322 2.72 376 2.94 371 3.08
 223  0.254  0.813  0.551- 391 1.82 425 2.08 321 2.78 372 2.87 330 2.90 374 3.17
 224  0.252  0.559  0.544- 419 1.92 390 2.04 318 2.64 328 2.77 368 2.88 373 3.19
 225  0.249  0.314  0.546- 420 1.85 395 2.30 369 2.65 327 2.72 319 2.74 378 3.05
 226  0.251  0.062  0.547- 418 1.84 394 2.24 320 2.68 326 2.72 367 3.03 377 3.27
 227  0.748  0.808  0.546- 400 1.83 417 2.03 325 2.67 362 2.75 379 3.14 364 3.29
 228  0.747  0.558  0.544- 432 1.96 399 1.98 323 2.61 349 2.78 380 2.85 365 3.23
 229  0.414  0.811  0.548- 398 1.96 424 1.96 321 2.71 331 2.78 372 2.92 384 3.12
 230  0.748  0.060  0.545- 423 1.84 402 2.21 322 2.64 332 2.68 371 3.16 383 3.30
 231  0.748  0.311  0.548- 422 1.98 401 2.00 370 2.66 324 2.73 335 2.83 363 3.00
 232  0.416  0.320  0.552- 397 1.96 415 1.98 375 2.66 369 2.73 319 2.98 334 2.99
 233  0.420  0.565  0.556- 408 1.90 414 2.13 386 2.65 368 2.71 333 2.92 318 3.04
 234  0.417  0.065  0.547- 416 1.84 396 2.25 320 2.74 329 2.77 376 2.94 367 3.07
 235  0.085  0.813  0.547- 412 1.85 405 2.18 330 2.68 336 2.73 374 3.17 366 3.30
 236  0.083  0.564  0.546- 413 1.84 404 2.23 317 2.69 328 2.73 373 2.81
 237  0.086  0.314  0.547- 421 1.84 403 2.23 327 2.70 337 2.77 378 2.89 381 3.19
 238  0.082  0.063  0.548- 433 1.84 406 2.23 338 2.70 326 2.72 315 3.15 377 3.28
 239  0.916  0.939  0.546- 411 1.85 387 2.20 332 2.65 338 2.70 364 3.24 366 3.32
 240  0.913  0.690  0.545- 410 1.85 407 2.22 362 2.62 336 2.72 365 2.83
 241  0.584  0.938  0.546- 431 1.84 393 2.25 322 2.67 329 2.68 379 2.96 384 3.08
 242  0.916  0.191  0.544- 430 1.88 409 2.03 335 2.63 337 2.68 383 3.32 315 3.40
 243  0.916  0.440  0.544- 429 1.85 457 2.25 349 2.63 317 2.65 363 3.00 381 3.26
 244  0.577  0.436  0.552- 389 1.95 428 2.04 375 2.63 333 2.75 370 2.96 323 3.01
 245  0.580  0.686  0.547- 427 1.92 388 2.12 386 2.66 331 2.71 380 2.82 325 2.84
 246  0.252  0.937  0.545- 425 1.83 394 2.22 320 2.67 326 2.74 372 2.93 374 3.31
 247  0.498  0.504  0.609- 408 2.10  11 2.16 389 2.25 386 2.73 375 3.01 333 3.26
 248  0.499  0.253  0.590- 397 1.99 392 2.05 375 2.65 334 2.65 376 2.96
 249  0.500  1.000  0.591- 396 2.00 393 2.00 329 2.57 376 2.76 384 2.81
 250  0.754  0.693  0.657-  28 2.05  15 2.11 400 2.40 365 3.02 380 3.19
 251  0.749  0.936  0.640- 402 1.80 364 2.49 379 2.53
 252  0.253  0.186  0.641- 395 1.74 367 2.51 377 2.55
 253  0.746  0.194  0.647- 401 1.98   3 2.08 371 2.67 383 2.76
 254  0.756  0.436  0.639- 399 1.97  14 2.01 363 2.61 370 2.81
 255  0.417  0.935  0.640- 396 1.79 384 2.52 372 2.58
 256  0.422  0.676  0.633-  42 2.03 398 2.03 386 2.55 368 2.63
 257  0.590  0.811  0.646- 388 1.94  17 2.09 379 2.64 384 2.80
 258  0.916  0.060  0.643- 387 1.79 383 2.50 315 2.51
 259  0.913  0.562  0.643- 457 1.80 382 2.46 365 2.54
 260  0.914  0.310  0.644- 459 0.96 409 2.01 381 2.60 363 2.61
 261  0.914  0.813  0.642- 407 1.80 364 2.50 366 2.52
 262  0.582  0.065  0.640- 393 1.79 371 2.51 376 2.52
 263  0.583  0.319  0.634- 392 1.96  27 2.04 375 2.53 370 2.67
 264  0.592  0.564  0.640- 389 1.97   2 2.08 380 2.63 386 2.84
 265  0.247  0.574  0.629- 390 1.99  45 2.03 368 2.55 373 2.55
 266  0.262  0.798  0.647- 391 1.96   4 2.06 372 2.81 374 2.94
 267  0.249  0.316  0.642- 395 1.94  35 2.06 378 2.58 369 2.66
 268  0.251  0.059  0.642- 394 1.79 367 2.49 377 2.50
 269  0.917  0.563  0.361- 435 1.97 340 2.79 316 2.79
 270  0.500  0.374  0.500- 415 1.98 428 1.99 355 2.78 333 2.80 334 2.82 375 2.86
 271  0.500  0.873  0.501- 424 1.98 431 1.99 331 2.68 357 2.82 329 2.83 384 3.27
 272  0.500  0.621  0.500- 427 1.98 414 1.98 333 2.71 356 2.79 386 2.81 331 2.94
 273  0.832  0.623  0.500- 432 1.90 410 2.05 349 2.75 316 2.79 362 2.87 365 3.10
 274  0.833  0.874  0.499- 417 1.95 411 2.01 362 2.74 339 2.75 332 2.82
 275  0.833  0.373  0.500- 422 1.90 429 2.04 335 2.78 359 2.78 349 2.84 363 3.10
 276  0.833  0.124  0.500- 423 1.95 430 2.01 332 2.78 335 2.78 358 2.78
 277  0.167  0.376  0.498- 420 1.90 421 2.02 351 2.72 328 2.76 327 2.87 378 3.33
 278  0.168  0.624  0.500- 419 1.90 413 2.06 328 2.78 352 2.79 330 2.84 373 3.06
 279  0.582  0.438  0.646- 389 2.11  11 2.11  46 2.19 375 2.85 370 3.01
 280  0.581  0.685  0.639- 388 1.87  48 2.11 386 2.63 380 2.76
 281  0.917  0.185  0.639- 409 1.74 383 2.50 315 2.53
 282  0.582  0.935  0.639- 393 1.80 384 2.50 379 2.51
 283  0.830  0.751  0.593- 400 1.86 407 2.10 362 2.71 365 2.79 364 2.89
 284  0.832  0.248  0.591- 401 1.84 409 2.11 335 2.66 363 2.80 383 2.92
 285  0.833  0.504  0.589- 399 1.83 457 2.06 349 2.59 365 2.78 363 2.97
 286  0.832  0.002  0.592- 402 2.00 387 2.02 332 2.57 383 2.79 364 2.92
 287  0.501  0.756  0.593- 388 1.99 398 2.02 331 2.67 384 2.73 386 2.94
 288  0.418  0.065  0.640- 396 1.80 367 2.51 376 2.54
 289  0.427  0.305  0.655-  37 2.13  22 2.15 397 2.31 375 2.92 369 3.40
 290  0.412  0.812  0.640- 398 1.95  23 2.08 372 2.60 384 2.69
 291  0.398  0.551  0.652-  19 2.10  26 2.11 408 2.16 368 2.80 386 3.48
 292  0.752  0.571  0.634- 399 1.92  15 2.09 365 2.61 380 2.69
 293  0.741  0.810  0.640- 400 1.98  28 2.05 379 2.59 364 2.69
 294  0.747  0.313  0.640- 401 2.00   3 2.07 370 2.62 363 2.74
 295  0.748  0.067  0.639- 402 1.80 383 2.47 371 2.47
 296  0.082  0.311  0.640- 403 1.80 378 2.51 381 2.51
 297  0.667  0.875  0.499- 431 1.97 417 2.00 325 2.74 350 2.76 322 2.81 379 3.24
 298  0.087  0.561  0.642- 404 1.80 382 2.47 373 2.55
 299  0.085  0.060  0.642- 406 1.80 315 2.49 377 2.49
 300  0.085  0.435  0.638- 404 1.79 378 2.50 381 2.55
 301  0.083  0.185  0.640- 403 1.78 315 2.50 377 2.51
 302  0.418  0.188  0.640- 397 2.00  22 2.01 376 2.63 367 2.68
 303  0.415  0.419  0.630-  37 2.03 408 2.07 375 2.54 369 2.60
 304  0.084  0.935  0.641- 406 1.79 374 2.48 366 2.49
 305  0.083  0.687  0.640- 405 1.80 382 2.45 373 2.51
 306  0.913  0.435  0.637- 457 1.79 363 2.50 381 2.54
 307  0.917  0.688  0.640- 407 1.80 382 2.46 365 2.51
 308  0.914  0.936  0.641- 387 1.80 364 2.47 366 2.50
 309  0.241  0.442  0.642- 390 1.90   8 2.11 378 2.62 369 2.92
 310  0.254  0.677  0.664-   4 2.06  45 2.11 368 3.02 373 3.13
 311  0.579  0.190  0.644- 392 1.90  25 2.14 376 2.67 371 2.71
 312  0.252  0.930  0.637- 394 1.81 374 2.47 372 2.49
 313  0.084  0.812  0.642- 405 1.79 374 2.48 366 2.52
 314  0.917  0.812  0.361- 434 1.97 341 2.79 339 2.79
 315  0.001  0.120  0.619- 299 2.49 301 2.50 258 2.51 281 2.53 202 2.80 203 3.02 238 3.15 182 3.17
                           196 3.35 387 3.38 406 3.38 409 3.39 242 3.40 403 3.49 433 3.90 430 3.93
 316  0.833  0.625  0.407-  83 2.75 273 2.79 126 2.79 105 2.79 269 2.79  93 2.79 138 2.79 139 2.79
                           150 2.80  64 2.81  53 2.88 458 3.42 446 3.42 435 3.42 434 3.42 432 3.45
 317  1.000  0.501  0.507- 198 2.61 243 2.65 195 2.67 236 2.69 218 2.71  75 2.82  64 2.86  74 2.87
                           142 2.89  61 2.93  84 2.96 164 2.99 413 3.38 410 3.38 429 3.42 421 3.43
 318  0.331  0.499  0.501- 224 2.64  81 2.70  65 2.70 204 2.70 146 2.74 155 2.76 213 2.81  80 2.81
                           168 2.82 188 2.84  58 2.85 233 3.04 408 3.35 449 3.41 419 3.42 415 3.44
 319  0.330  0.248  0.503- 184 2.65 200 2.70 193 2.72  51 2.73 225 2.74  76 2.74 154 2.78 145 2.82
                            68 2.87 167 2.87  81 2.91 232 2.98 397 3.32 418 3.36 420 3.42 448 3.44
 320  0.333  0.001  0.506- 201 2.59 246 2.67 226 2.68 191 2.71 234 2.74  76 2.78 144 2.84 152 2.84
                            78 2.84  89 2.90  56 2.92 166 2.96 416 3.34 425 3.38 418 3.40 424 3.41
 321  0.334  0.751  0.502- 205 2.69 229 2.71 147 2.74  78 2.74  69 2.76 156 2.76 223 2.78  80 2.81
                            57 2.84 169 2.84 189 2.87 215 2.92 391 3.37 398 3.40 414 3.41 424 3.42
 322  0.666  0.000  0.506- 207 2.59 230 2.64 241 2.67 222 2.72 185 2.77 297 2.81  79 2.81  52 2.85
                            92 2.85  86 2.89 148 2.90 170 2.96 426 3.37 417 3.38 423 3.38 431 3.39
 323  0.669  0.500  0.501- 228 2.61  82 2.70 209 2.71  54 2.71 150 2.76  88 2.79  91 2.79 172 2.81
                            90 2.82 219 2.87 187 2.87 244 3.01 389 3.34 422 3.41 458 3.41 432 3.42
 324  0.667  0.248  0.503- 206 2.63  79 2.72 231 2.73  55 2.75 221 2.76 190 2.79  71 2.79 149 2.82
                           216 2.82 158 2.87 171 2.88  82 2.92 426 3.41 423 3.43 401 3.43 428 3.43
 325  0.665  0.752  0.502- 208 2.64 227 2.67  73 2.72 297 2.74 220 2.75  53 2.78  90 2.81 151 2.82
                            87 2.83 245 2.84 173 2.85 186 3.01 400 3.35 431 3.38 427 3.39 454 3.45
 326  0.166  0.001  0.507- 210 2.57 192 2.67 238 2.72 226 2.72 246 2.74 181 2.75 140 2.85 183 2.86
                           152 2.88  60 2.90  89 2.92 174 2.99 425 3.37 418 3.38 433 3.39 412 3.44
 327  0.167  0.248  0.506- 211 2.61 196 2.63 237 2.70 184 2.72 225 2.72 181 2.78  51 2.85 277 2.87
                            62 2.88 141 2.89 154 2.95 175 2.98 420 3.37 418 3.39 433 3.39 421 3.46
 328  0.163  0.500  0.502- 214 2.57 195 2.68 236 2.73 142 2.76 277 2.76 224 2.77 278 2.78  61 2.80
                           213 2.84  65 2.86 176 2.86 155 2.93 390 3.33 421 3.39 419 3.42 413 3.42
 329  0.500  0.999  0.505- 249 2.57 241 2.68 222 2.72 191 2.72 234 2.77 197 2.82 271 2.83 144 2.84
                            92 2.85  86 2.86  56 2.87 178 2.95 424 3.38 416 3.38 431 3.39 426 3.40
 330  0.164  0.751  0.503- 194 2.62 235 2.68 183 2.72 212 2.76 143 2.77  59 2.81 156 2.82 278 2.84
                           177 2.89  69 2.90 223 2.90 215 2.91 391 3.34 412 3.37 413 3.43 419 3.45
 331  0.501  0.753  0.504- 189 2.67 287 2.67 271 2.68 245 2.71  73 2.76 229 2.78 147 2.78 220 2.82
                            87 2.86  57 2.91 180 2.91 272 2.94 431 3.38 398 3.38 424 3.41 427 3.42
 332  0.834  0.000  0.507- 286 2.57 239 2.65 230 2.68 182 2.73 276 2.78 185 2.78 274 2.82  66 2.85
                            52 2.88  70 2.88 148 2.93 159 2.99 417 3.36 423 3.37 430 3.40 411 3.41
 333  0.501  0.500  0.500- 188 2.61 272 2.71  88 2.71 146 2.74 244 2.75 219 2.75  91 2.77 160 2.80
                           270 2.80  58 2.84 233 2.92 247 3.26 453 3.41 428 3.43 442 3.44 415 3.45
 334  0.501  0.248  0.502- 248 2.65  71 2.72 216 2.73 197 2.73 193 2.74 221 2.74  68 2.81 145 2.81
                           270 2.82 179 2.85 158 2.85 232 2.99 397 3.37 426 3.40 428 3.42 452 3.45
 335  0.835  0.249  0.503- 242 2.63 284 2.66  67 2.76 275 2.78 276 2.78  55 2.79  85 2.82 231 2.83
                           153 2.83 157 2.88 190 2.89 149 2.92 401 3.35 430 3.40 429 3.43 422 3.44
 336  1.000  0.751  0.506- 199 2.57 240 2.72 194 2.72 217 2.73 235 2.73  75 2.77  77 2.79  63 2.87
                           143 2.87  59 2.94  83 2.94 165 2.98 413 3.39 410 3.39 412 3.40 411 3.40
 337  0.001  0.249  0.505- 203 2.58 196 2.66 242 2.68  74 2.77 237 2.77  72 2.78  67 2.84 141 2.84
                           153 2.87  62 2.87  85 2.92 163 2.93 421 3.39 433 3.40 429 3.41 430 3.42
 338  0.000  0.000  0.507- 202 2.59 192 2.68 238 2.70 239 2.70 182 2.72  77 2.79  72 2.80 140 2.87
                            66 2.89  70 2.90  60 2.91 162 2.99 430 3.39 412 3.40 433 3.41 411 3.41
 339  0.833  0.875  0.407- 274 2.75  70 2.79 151 2.79 125 2.79 104 2.79 314 2.79 101 2.79 139 2.79
                           159 2.79  63 2.80  52 2.84 446 3.42 434 3.42 444 3.42 455 3.42 417 3.48
 340  0.000  0.625  0.407-  75 2.72 269 2.79  93 2.79 114 2.79 136 2.79 164 2.79 165 2.79  83 2.79
                            59 2.80 142 2.81  64 2.82 435 3.42 434 3.42 438 3.42 439 3.42 413 3.53
 341  0.000  0.875  0.407-  77 2.78  60 2.79 314 2.79 133 2.79 101 2.79 135 2.79 165 2.79 162 2.79
                            70 2.79  63 2.80 143 2.81 434 3.42 439 3.42 455 3.42 436 3.42 411 3.57
 342  0.333  0.125  0.407-  76 2.74 132 2.79 134 2.79 124 2.79 103 2.79 166 2.79 167 2.79  68 2.79
                           152 2.80  51 2.81 144 2.83 440 3.42 441 3.42 447 3.42 448 3.42 416 3.48
 343  0.333  0.375  0.407- 154 2.74  58 2.77 110 2.79 131 2.79 111 2.79 123 2.79 167 2.79 168 2.79
                            65 2.81 145 2.84  81 2.88 441 3.42 442 3.42 448 3.42 449 3.42 415 3.43
 344  0.333  0.625  0.407- 155 2.74  57 2.78  69 2.79 130 2.79 109 2.79 122 2.79 102 2.79 168 2.79
                           169 2.79 146 2.88  80 2.92 442 3.42 443 3.42 449 3.42 450 3.42 414 3.45
 345  0.333  0.875  0.407-  78 2.76  89 2.78 129 2.79 121 2.79 108 2.79 100 2.79 169 2.79 166 2.79
                            56 2.79 156 2.84 147 2.85 443 3.42 450 3.42 440 3.42 447 3.42 425 3.49
 346  0.667  0.125  0.407- 148 2.76  79 2.76 128 2.79 107 2.79 120 2.79  99 2.79 170 2.79 171 2.79
                            92 2.82  71 2.84  55 2.85 444 3.42 445 3.42 451 3.42 452 3.42 426 3.53
 347  0.667  0.375  0.407- 149 2.75 158 2.76 106 2.79 127 2.79  98 2.79 119 2.79 171 2.79 172 2.79
                            54 2.83  88 2.85  82 2.89 445 3.42 458 3.42 453 3.42 452 3.42 428 3.47
 348  0.667  0.625  0.407- 150 2.74 126 2.79 105 2.79 118 2.79  97 2.79 172 2.79 173 2.79  91 2.79
                            87 2.80  53 2.84  90 2.88 458 3.42 446 3.42 453 3.42 454 3.42 427 3.43
 349  0.836  0.500  0.503- 285 2.59 243 2.63 218 2.74 273 2.75  64 2.76 228 2.78  84 2.82 187 2.82
                           275 2.84  54 2.84 138 2.87 150 2.92 399 3.36 432 3.41 422 3.41 429 3.42
 350  0.667  0.875  0.407- 297 2.76 151 2.76  86 2.79 125 2.79 104 2.79 117 2.79  96 2.79 173 2.79
                           170 2.79  52 2.82  73 2.84 446 3.42 454 3.42 444 3.42 451 3.42 417 3.50
 351  0.167  0.375  0.407- 277 2.72  61 2.78 111 2.79 137 2.79 123 2.79 113 2.79 176 2.79 175 2.79
                           141 2.80 154 2.82  65 2.85 448 3.42 449 3.42 437 3.42 438 3.42 420 3.44
 352  0.167  0.625  0.407-  59 2.75 142 2.79 122 2.79 102 2.79 114 2.79 136 2.79 176 2.79 177 2.79
                           278 2.79 155 2.81  69 2.87 449 3.42 450 3.42 438 3.42 439 3.42 419 3.46
 353  0.167  0.875  0.407-  60 2.77  89 2.78 183 2.79 121 2.79 133 2.79 100 2.79 135 2.79 177 2.79
                           174 2.79 143 2.80 156 2.85 450 3.42 439 3.42 447 3.42 436 3.42 425 3.46
 354  0.500  0.125  0.407-  68 2.78 197 2.78 120 2.79  99 2.79 132 2.79 134 2.79 178 2.79 179 2.79
                            92 2.80  71 2.82 144 2.82 451 3.42 452 3.42 440 3.42 441 3.42 416 3.50
 355  0.500  0.375  0.407-  58 2.77 270 2.78  98 2.79 119 2.79 110 2.79 131 2.79 179 2.79 160 2.79
                           158 2.79  88 2.84 145 2.88 452 3.42 453 3.42 441 3.42 442 3.42 415 3.44
 356  0.500  0.625  0.407-  57 2.77  87 2.78 118 2.79  97 2.79 130 2.79 109 2.79 160 2.79 180 2.79
                           272 2.79  91 2.83 146 2.90 453 3.42 454 3.42 442 3.42 443 3.42 414 3.44
 357  0.500  0.875  0.407-  56 2.76  86 2.77 117 2.79 129 2.79  96 2.79 108 2.79 180 2.79 178 2.79
                           271 2.82 147 2.85  73 2.85 454 3.42 443 3.42 451 3.42 440 3.42 424 3.52
 358  0.833  0.125  0.407-  85 2.74 148 2.78 276 2.78 128 2.79 107 2.79 116 2.79  95 2.79 159 2.79
                           157 2.79  66 2.79  55 2.85 444 3.42 445 3.42 455 3.42 456 3.42 423 3.53
 359  0.833  0.375  0.407-  84 2.73 275 2.78 106 2.79 127 2.79  94 2.79 115 2.79 157 2.79 138 2.79
                           149 2.83  67 2.84  54 2.84 445 3.42 458 3.42 456 3.42 435 3.42 422 3.45
 360  0.167  0.125  0.407- 181 2.76  62 2.76 124 2.79 103 2.79 112 2.79 161 2.79 174 2.79 175 2.79
                            51 2.81 140 2.81 152 2.81 447 3.42 448 3.42 436 3.42 437 3.42 418 3.57
 361  0.000  0.375  0.407-  74 2.75  84 2.76  61 2.76  94 2.79 115 2.79 137 2.79 113 2.79 163 2.79
                           164 2.79 141 2.81  67 2.85 435 3.42 456 3.42 438 3.42 437 3.42 421 3.54
 362  0.836  0.752  0.503- 240 2.62 217 2.69 283 2.71 274 2.74 227 2.75  63 2.75  83 2.81  53 2.84
                           139 2.87 273 2.87 151 2.88 186 2.97 400 3.31 411 3.37 410 3.42 434 3.45
 363  0.837  0.372  0.603- 306 2.50 254 2.61 260 2.61 153 2.74 294 2.74 284 2.80 187 2.91 285 2.97
                           243 3.00 231 3.00 275 3.10 401 3.41 457 3.45 399 3.48 429 3.49 409 3.50
 364  0.832  0.876  0.618- 308 2.47 251 2.49 261 2.50 293 2.69 283 2.89 286 2.92 185 3.15 217 3.21
                           239 3.24 227 3.29 400 3.43 387 3.44 402 3.45 407 3.47 411 3.89 417 3.94
 365  0.841  0.627  0.603- 307 2.51 259 2.54 292 2.61 285 2.78 283 2.79 218 2.82 240 2.83 186 2.85
                           250 3.02 273 3.10 228 3.23 407 3.33 457 3.36 399 3.41 410 3.44 400 3.53
 366  0.999  0.874  0.621- 304 2.49 308 2.50 313 2.52 261 2.52 199 2.83 202 2.91 217 3.28 235 3.30
                           239 3.32 192 3.34 407 3.40 405 3.40 406 3.45 387 3.45 411 3.94 374 3.95
 367  0.332  0.120  0.613- 268 2.49 288 2.51 252 2.51 302 2.68 201 2.75 226 3.03 200 3.07 234 3.07
                           184 3.13 193 3.24 394 3.36 396 3.36 395 3.43  76 3.45 397 3.55 418 3.75
 368  0.334  0.624  0.596- 265 2.55 205 2.59 256 2.63 233 2.71  80 2.74 215 2.75 291 2.80 204 2.85
                           224 2.88 189 2.94 310 3.02 408 3.37 398 3.41 414 3.44 419 3.45 391 3.50
 369  0.326  0.374  0.593- 303 2.60 213 2.65 225 2.65 267 2.66 200 2.67  81 2.71 232 2.73 204 2.75
                           309 2.92 188 3.13 420 3.29  37 3.38 289 3.40 395 3.40 390 3.40 408 3.43
 370  0.671  0.372  0.594- 294 2.62 231 2.66 263 2.67 209 2.71  82 2.74 187 2.74 206 2.78 254 2.81
                           221 2.88 244 2.96 279 3.01 422 3.35 401 3.39 428 3.45 389 3.45 392 3.46
 371  0.665  0.124  0.612- 295 2.47 262 2.51 253 2.67 311 2.71 206 2.82 207 2.83 190 3.00 216 3.08
                           222 3.08 230 3.16 392 3.38  79 3.39 393 3.39 402 3.39 401 3.50 426 3.76
 372  0.335  0.879  0.603- 312 2.49 255 2.58 290 2.60 201 2.73 266 2.81 223 2.87 191 2.88 229 2.92
                           246 2.93 205 3.11  78 3.13 394 3.33 396 3.34 398 3.47 391 3.48 424 3.55
 373  0.159  0.627  0.602- 305 2.51 265 2.55 298 2.55 212 2.77 194 2.79 214 2.81 236 2.81 215 2.90
                           278 3.06 310 3.13 224 3.19 405 3.33 404 3.37 413 3.41 390 3.50 391 3.55
 374  0.166  0.873  0.618- 312 2.47 313 2.48 304 2.48 212 2.83 210 2.91 266 2.94 235 3.17 223 3.17
                           192 3.27 246 3.31 391 3.41 405 3.43 394 3.44 406 3.44 183 3.55 412 3.89
 375  0.502  0.371  0.595- 263 2.53 303 2.54 244 2.63 248 2.65 232 2.66 221 2.77 279 2.85 270 2.86
                           188 2.88 289 2.92 247 3.01 392 3.39 428 3.39 397 3.43 415 3.48 408 3.54
 376  0.500  0.122  0.606- 262 2.52 288 2.54 302 2.63 311 2.67 249 2.76 216 2.93 234 2.94 222 2.94
                           248 2.96 193 3.10 197 3.19 393 3.33 396 3.36 392 3.44 397 3.51 426 3.62
 377  0.168  0.122  0.622- 299 2.49 268 2.50 301 2.51 252 2.55 210 2.91 211 2.94 226 3.27 238 3.28
                           184 3.33 196 3.39 395 3.40 394 3.44 406 3.45 403 3.48 367 3.89 315 3.95
 378  0.163  0.371  0.608- 300 2.50 296 2.51 267 2.58 309 2.62 211 2.77 237 2.89 214 3.00 225 3.05
                           213 3.06 195 3.09 277 3.33 403 3.33 390 3.42 395 3.46 404 3.48 421 3.63
 379  0.665  0.881  0.607- 282 2.51 251 2.53 293 2.59 257 2.64 207 2.71 185 2.92 220 2.92 241 2.96
                           208 3.14 227 3.14 297 3.24 393 3.32 402 3.35 388 3.49 400 3.55 431 3.60
 380  0.666  0.627  0.594- 208 2.58 264 2.63 186 2.65 292 2.69  90 2.72 280 2.76 245 2.82 219 2.83
                           228 2.85 209 2.98 250 3.19 389 3.33 388 3.37 427 3.40 432 3.40  15 3.42
 381  0.999  0.373  0.616- 296 2.51 306 2.54 300 2.55 260 2.60 203 2.85 198 2.91 153 3.05 237 3.19
                           195 3.24 243 3.26 457 3.44 404 3.45 403 3.46 409 3.49  74 3.51 429 3.79
 382  1.000  0.622  0.642- 305 2.45 259 2.46 307 2.46 298 2.47 198 3.07 199 3.31 457 3.52 404 3.52
                           405 3.65 407 3.67 373 3.95 365 3.95 317 4.87 336 4.99
 383  0.834  0.122  0.618- 295 2.47 258 2.50 281 2.50 253 2.76 286 2.79 284 2.92 190 3.17 182 3.18
                           230 3.30 242 3.32 402 3.38 387 3.40 409 3.42 401 3.45 430 3.91 423 3.93
 384  0.500  0.876  0.610- 282 2.50 255 2.52 290 2.69 287 2.73 257 2.80 249 2.81 220 3.03 191 3.07
                           241 3.08 229 3.12 271 3.27 396 3.39 393 3.39 388 3.46 398 3.49 431 3.69
 385  0.000  0.125  0.407-  72 2.75  85 2.77  62 2.78 116 2.79  95 2.79 112 2.79 161 2.79 162 2.79
                           163 2.79 140 2.81  66 2.81 455 3.42 456 3.42 436 3.42 437 3.42 430 3.55
 386  0.504  0.625  0.594- 256 2.55 280 2.63 233 2.65 245 2.66 219 2.69 247 2.73 189 2.77 272 2.81
                           264 2.84 287 2.94 427 3.37 388 3.39 389 3.45 414 3.46 291 3.48 398 3.48
 387  0.916  0.999  0.604- 258 1.79 308 1.80 202 2.00 286 2.02 239 2.20 182 2.22 315 3.38 383 3.40
                           364 3.44 366 3.45 332 3.51 338 3.53
 388  0.584  0.750  0.599- 280 1.87 257 1.94 208 1.96 287 1.99 220 2.06 245 2.12 380 3.37 386 3.39
                           384 3.46 331 3.48 325 3.49 379 3.49
 389  0.591  0.501  0.594- 209 1.81 219 1.89 244 1.95 264 1.97 279 2.11 247 2.25  11 3.13 380 3.33
                           323 3.34 386 3.45 370 3.45 333 3.51 375 3.58
 390  0.242  0.498  0.594- 214 1.83 309 1.90 213 1.94 265 1.99 224 2.04 204 2.16 328 3.33 369 3.40
                           378 3.42 318 3.50 373 3.50 368 3.56
 391  0.249  0.752  0.592- 223 1.82 212 1.86 215 1.96 266 1.96 205 2.06 330 3.34 321 3.37 374 3.41
                           372 3.48 368 3.50 373 3.55
 392  0.584  0.247  0.597- 206 1.89 311 1.90 263 1.96 216 1.98 248 2.05 221 2.11 371 3.38 375 3.39
                           324 3.43 376 3.44 370 3.46 334 3.47
 393  0.583  0.001  0.604- 262 1.79 282 1.80 249 2.00 207 2.01 222 2.21 241 2.25 379 3.32 376 3.33
                           371 3.39 384 3.39 329 3.55 322 3.56
 394  0.250  0.997  0.604- 268 1.79 312 1.81 210 1.98 201 2.03 246 2.22 226 2.24 372 3.33 367 3.36
                           377 3.44 374 3.44 326 3.54 320 3.56
 395  0.249  0.246  0.604- 252 1.74 211 1.94 267 1.94 200 2.06 184 2.13 225 2.30 377 3.40 369 3.40
                           367 3.43 378 3.46 327 3.52 319 3.59
 396  0.417  0.000  0.605- 255 1.79 288 1.80 249 2.00 201 2.00 234 2.25 191 2.26 372 3.34 376 3.36
                           367 3.36 384 3.39 329 3.57 320 3.57
 397  0.415  0.249  0.591- 193 1.85 200 1.90 232 1.96 248 1.99 302 2.00 289 2.31 319 3.32 334 3.37
                           375 3.43 369 3.49 376 3.51 367 3.55
 398  0.416  0.750  0.595- 205 1.92 290 1.95 229 1.96 189 2.00 287 2.02 256 2.03 331 3.38 321 3.40
                           368 3.41 372 3.47 386 3.48 384 3.49
 399  0.757  0.503  0.596- 285 1.83 292 1.92 254 1.97 228 1.98 187 2.06 209 2.13 349 3.36 365 3.41
                           363 3.48 380 3.50 323 3.52 370 3.55
 400  0.752  0.753  0.591- 227 1.83 283 1.86 186 1.96 293 1.98 208 2.04 250 2.40  28 3.13 362 3.31
                           325 3.35 364 3.43 380 3.46 365 3.53 379 3.55
 401  0.754  0.248  0.594- 284 1.84 190 1.95 253 1.98 231 2.00 294 2.00 206 2.14   3 3.05 335 3.35
                           370 3.39 363 3.41 324 3.43 383 3.45 371 3.50
 402  0.749  0.001  0.604- 295 1.80 251 1.80 286 2.00 207 2.01 230 2.21 185 2.27 379 3.35 383 3.38
                           371 3.39 364 3.45 332 3.55 322 3.56
 403  0.083  0.248  0.603- 301 1.78 296 1.80 203 2.02 211 2.03 196 2.18 237 2.23 378 3.33 381 3.46
                           377 3.48 315 3.49 327 3.51 337 3.54
 404  0.081  0.500  0.604- 300 1.79 298 1.80 198 1.95 214 2.05 236 2.23 195 2.23 373 3.37 381 3.45
                           378 3.48 317 3.48 382 3.52 328 3.61
 405  0.080  0.751  0.603- 313 1.79 305 1.80 199 1.94 212 2.15 235 2.18 194 2.22 373 3.33 366 3.40
                           374 3.43 336 3.47 330 3.59 382 3.65
 406  0.084  0.998  0.604- 304 1.79 299 1.80 210 2.01 202 2.01 192 2.19 238 2.23 315 3.38 374 3.44
                           366 3.45 377 3.45 326 3.51 338 3.52
 407  0.918  0.751  0.603- 261 1.80 307 1.80 199 1.96 283 2.10 217 2.18 240 2.22 365 3.33 366 3.40
                           364 3.47 336 3.48 362 3.59 382 3.67
 408  0.411  0.497  0.593- 204 1.85 188 1.88 233 1.90 303 2.07 247 2.10 291 2.16 318 3.35 368 3.37
                           369 3.43 333 3.50 375 3.54 386 3.59
 409  0.920  0.243  0.600- 281 1.74 203 1.90 260 2.01 242 2.03 284 2.11 153 2.23 315 3.39 383 3.42
                           337 3.43 381 3.49 363 3.50 335 3.54
 410  0.918  0.626  0.506- 218 1.84 240 1.85  75 1.95 273 2.05  83 2.09  64 2.12 317 3.38 336 3.39
                           349 3.42 362 3.42 365 3.44 340 3.55 316 3.59
 411  0.917  0.875  0.507- 217 1.84 239 1.85  77 1.97 274 2.01  70 2.11  63 2.11 362 3.37 336 3.40
                           338 3.41 332 3.41 341 3.57 339 3.59 364 3.89 366 3.94
 412  0.083  0.875  0.507- 192 1.84 235 1.85  77 1.97 183 2.02  60 2.11 143 2.11 330 3.37 336 3.40
                           338 3.40 326 3.44 341 3.58 353 3.59 374 3.89 366 3.96
 413  0.081  0.626  0.506- 236 1.84 194 1.85  75 1.94 278 2.06  59 2.09 142 2.11 317 3.38 336 3.39
                           373 3.41 328 3.42 330 3.43 340 3.53 352 3.59
 414  0.417  0.626  0.501-  57 1.91  80 1.93 189 1.95 146 1.97 272 1.98 233 2.13 321 3.41 356 3.44
                           368 3.44 344 3.45 333 3.46 331 3.46 386 3.46 318 3.48
 415  0.416  0.374  0.501- 145 1.92  81 1.94  58 1.96 232 1.98 270 1.98 188 2.06 343 3.43 318 3.44
                           355 3.44 333 3.45 334 3.47 319 3.48 375 3.48 369 3.49
 416  0.416  0.122  0.503- 234 1.84  76 1.96 144 1.96 197 1.98 193 2.03  68 2.08 320 3.34 329 3.38
                           334 3.46 319 3.47 342 3.48 354 3.50 376 3.69 367 3.87
 417  0.751  0.879  0.503- 185 1.83 274 1.95  52 1.95 297 2.00 227 2.03 151 2.09 332 3.36 322 3.38
                           362 3.47 325 3.48 339 3.48 350 3.50 379 3.72 364 3.94
 418  0.249  0.124  0.507- 226 1.84 184 1.87 181 1.96  76 2.01 152 2.11  51 2.13 319 3.36 326 3.38
                           327 3.39 320 3.40 360 3.57 342 3.59 367 3.75 377 3.95
 419  0.248  0.624  0.503- 278 1.90 224 1.92 215 1.98  69 1.99 155 1.99  80 2.08 318 3.42 328 3.42
                           330 3.45 368 3.45 352 3.46 321 3.48 344 3.52 373 3.64
 420  0.247  0.373  0.503- 225 1.85 277 1.90 154 1.97 213 1.98  65 2.07  81 2.08 369 3.29 327 3.37
                           319 3.42 351 3.44 328 3.45 318 3.46 343 3.53 378 3.74
 421  0.082  0.375  0.506- 195 1.84 237 1.84  74 1.96 277 2.02 141 2.09  61 2.11 328 3.39 337 3.39
                           317 3.43 327 3.46 361 3.54 351 3.58 378 3.63 381 3.83
 422  0.752  0.375  0.503- 275 1.90 187 1.92 231 1.98  54 1.99 149 2.00  82 2.06 370 3.35 323 3.41
                           349 3.41 335 3.44 359 3.45 324 3.49 347 3.52 363 3.62
 423  0.751  0.122  0.505- 230 1.84 190 1.94 276 1.95  79 2.01 148 2.02  55 2.11 332 3.37 322 3.38
                           324 3.43 335 3.46 358 3.53 346 3.55 371 3.79 383 3.93
 424  0.416  0.876  0.504- 191 1.85 229 1.96  78 1.97 271 1.98  56 2.00 147 2.09 329 3.38 320 3.41
                           331 3.41 321 3.42 345 3.51 357 3.52 372 3.55 384 3.74
 425  0.249  0.879  0.502- 246 1.83 183 1.93  89 1.94  78 2.01 156 2.07 223 2.08 326 3.37 320 3.38
                           353 3.46 330 3.48 321 3.49 345 3.49 372 3.63 374 3.99
 426  0.584  0.123  0.505- 222 1.84 216 1.93  79 1.96 197 2.00  92 2.03  71 2.09 322 3.37 334 3.40
                           329 3.40 324 3.41 346 3.53 354 3.54 376 3.62 371 3.76
 427  0.584  0.627  0.501-  87 1.91 245 1.92  90 1.93 272 1.98  91 1.99 219 2.09 386 3.37 325 3.39
                           380 3.40 331 3.42 348 3.43 356 3.44 333 3.45 323 3.48
 428  0.584  0.373  0.502- 221 1.89  82 1.94 158 1.95 270 1.99  88 2.02 244 2.04 375 3.39 334 3.42
                           324 3.43 333 3.43 370 3.45 323 3.46 347 3.47 355 3.48
 429  0.918  0.375  0.506- 153 1.84 243 1.85  74 1.94 275 2.04  67 2.10  84 2.11 337 3.41 349 3.42
                           317 3.42 335 3.43 363 3.49 361 3.55 359 3.60 381 3.79
 430  0.917  0.124  0.506- 182 1.84 242 1.88  72 1.96 276 2.01  66 2.07  85 2.11 338 3.39 332 3.40
                           335 3.40 337 3.42 385 3.55 358 3.57 383 3.91 315 3.93
 431  0.584  0.876  0.506- 241 1.84 220 1.91 297 1.97 271 1.99  86 2.06  73 2.10 325 3.38 331 3.38
                           322 3.39 329 3.39 350 3.55 357 3.56 379 3.60 384 3.69
 432  0.752  0.624  0.503- 273 1.90 228 1.96 186 1.96  53 1.98 150 1.99  90 2.06 380 3.40 349 3.41
                           323 3.42 316 3.45 362 3.46 325 3.51 348 3.51 365 3.67
[...]
  273            m_sumb_d                              0.373534                       42   5
  274          m_sumb_d                              0.000666                          7   4
  275        setdij_                               5.007917                          140   3
  276          m_sumb_d                              1.140831                        140   4
  277        set_dd_magatom                        0.000028                            7   3
  278        set_dd_paw                            0.372158                            7   3
  279          set_rsgf_all                          0.000013                          7   4
  280          m_sumb_d                              0.073416                         49   4
  281        strkin                                0.048028                            7   3
  282          m_sumb_d                              0.008105                          7   4
  283        strelo                                0.051828                            7   3
  284          m_sumb_d                              0.004111                         14   4
  285        strnlr                               66.946150                            7   3
  286          rspher_all                            2.243842                         63   4
  287          phaser                                0.000038                         63   4
  288          rpro_isp                             64.554878                         63   4
  289            fftwav_mpi                           53.949038                     8820   5
  290              fft3d_mpi                            46.429502                   8820   6
  291                fftbrc_mpi                           35.772168                 8820   7
  292                  fftbas_plan_mpi                      35.742957               8820   8
  293                    dfftw_execute                        16.971687            26460   9
  294                    map_forward                          13.132777            17640   9
  295                      map_gather                            0.966233           8820  10
  296                      m_alltoallv_z                         4.916883           8820  10
  297                      map_scatter                           2.487185           8820  10
  298            rpromu                               10.528465                     2205   5
  299              rpromu_gemm                           3.061759                 500535   6
  300              m_sumb_d                              1.408870                   8820   6
  301          m_sumb_d                              0.002009                          7   4
  302        m_sumb_d                              0.071123                           49   3
  303        fft3d_mpi                             4.468894                          497   3
  304          fftbrc_mpi                            4.264285                        497   4
  305            fftbas_plan_mpi                       4.262666                      497   5
  306              dfftw_execute                         0.646044                   1491   6
  307              map_forward                           1.732080                    490   6
  308                map_gather                            0.032752                  245   7
  309                m_alltoallv_z                         1.415979                  245   7
  310                map_scatter                           0.278551                  245   7
  311              map_backward                          1.525837                    504   6
  312                map_gather                            0.183361                  252   7
  313                m_alltoallv_z                         1.270476                  252   7
  314                map_scatter                           0.067088                  252   7
  315        ggaall_grid                           1.313716                            7   3
  316        forhar                                2.789240                            7   3
  317          m_sumb_d                              0.028638                          7   4
  318        strehar                               0.049726                            7   3
  319          m_sumb_d                              0.007928                          7   4
  320        m_bcast_d                             0.006706                           14   3
  321      potlok                               72.699369                             13   2
  322        fft3d_mpi                            26.521682                         2741   3
  323          fftbrc_mpi                           25.458509                       2741   4
  324            fftbas_plan_mpi                      25.448988                     2741   5
  325              dfftw_execute                         3.574827                   8223   6
  326              map_forward                          10.139233                   2754   6
  327                map_gather                            0.226291                 1390   7
  328                m_alltoallv_z                         8.302344                 1390   7
  329                map_scatter                           1.581757                 1390   7
  330              map_backward                          9.772096                   2728   6
  331                map_gather                            1.034448                 1364   7
  332                m_alltoallv_z                         8.345849                 1364   7
  333                map_scatter                           0.364561                 1364   7
  334        ggaall_grid                          18.840299                          237   3
  335        m_sumb_d                              0.471585                         1224   3
  336        fewald                                0.018214                           26   3
  337          rsp                                   0.016737                         26   4
  338          rcp                                   0.001220                         26   4
  339        pothar                                0.026175                           13   3
  340          m_sumb_d                              0.018747                         13   4
  341        m_bcast_d                             0.054831                           13   3
  342      potlok_metagga                        0.000072                             13   2
  343      set_dd_magatom                        0.000006                              7   2
  344      set_dd_paw                            0.166786                             13   2
  345        set_rsgf_all                          0.000023                           13   3
  346        m_sumb_d                              0.162175                           91   3
  347      m_sumb_d                             50.978996                           3518   2
  348      wavpre_noio                           1.627809                              6   2
  349        stufak                                1.547382                            6   3
  350      eddiag                              193.068791                              6   2
  351        overl                                 0.008141                            6   3
  352        redis_proj                            0.445141                           18   3
  353          m_alltoall_d                          0.438077                       2520   4
  354        fftwav_mpi                            5.853563                          840   3
  355          fft3d_mpi                             4.942390                        840   4
  356            fftbrc_mpi                            3.584587                      840   5
  357              fftbas_plan_mpi                       3.581878                    840   6
  358                dfftw_execute                         1.638237                 2520   7
  359                map_forward                           1.445658                 1680   7
  360                  map_gather                            0.140543                840   8
  361                  m_alltoallv_z                         0.483322                840   8
  362                  map_scatter                           0.247953                840   8
  363        hamilt_local                          4.097658                          840   3
  364          vhamil                                1.129778                        840   4
  365          kinhamil                              2.960025                        840   4
  366            fftext_mpi                            2.906581                      840   5
  367              fft3d_mpi                             2.818145                    840   6
  368                fftbrc_mpi                            2.354058                  840   7
  369                  fftbas_plan_mpi                       2.351311                840   8
  370                    dfftw_execute                         1.174931             2520   9
  371                    map_backward                          0.699185             1680   9
  372                      map_gather                            0.144335            840  10
  373                      m_alltoallv_z                         0.421964            840  10
  374                      map_scatter                           0.119470            840  10
  375        redis_pw                              1.590628                          846   3
  376          m_alltoall_d                          1.529016                       2520   4
  377        orth1                                 2.214570                          420   3
  378        m_sumb_d                              1.182883                            6   3
  379        shift_bands_between_low_high          0.000010                            6   3
  380        lincom                                1.859119                            6   3
 
 Flat profile
 ============
 
             routine name                   CPU           calls
 ---------------------------------------------------------------
 edwav                                5510.205771         344
 potlok                                652.043201         357
 total_time                            481.153875           1
 dfftw_execute                         349.304482      620724
 eddiag                                348.207588         185
 m_sumb_d                              291.833622      355567
 lincom                                285.394378        1052
 m_alltoall_d                          267.648075      834540
 m_alltoallv_z                         263.113566      207616
 orth1                                 238.580199       49560
 fft3d_mpi                             197.619660      206908
 fftbas_plan_mpi                       132.884370      206908
 choleski                              124.645327         351
 fftwav_mpi                            123.671086      127867
 eccp                                   99.888040       96320
 ggaall_grid                            84.803893         588
 map_forward                            78.449608      284452
 map_scatter                            63.986378      207616
 racc0                                  48.374625       24080
 pw_charge                              45.022964       41067
 map_gather                             39.439371      207616
 rpro1                                  38.061790       24080
 vhamil                                 34.949743       25900
 w1_dscal                               24.432587       24080
 orthch                                 17.692854         351
 setdij_                                15.699390         540
 force_and_stress                       13.594606           7
 m_bcast_z                              12.688249        2381
 augmentation_charge                    12.497341         351
 rpromu                                  8.767270        3185
 redis_pw                                5.434304       99027
 rpromu_gemm                             4.450589      722995
 fftext_mpi                              3.910365       49980
 rspher_all                              3.237419          92
 forloc                                  2.776020           7
 forhar                                  2.760602           7
 redis_proj                              2.440492       76084
 stufak                                  1.807684           7
 m_bcast_d                               1.702138         387
 elmin_all                               1.592984           7
 overl                                   1.542598       24788
 soft_charge                             1.304148         351
 kinhamil                                1.189692       25900
 map_backward                            1.116122      129364
 set_dd_paw                              0.732916         364
 fftbrc_mpi                              0.662966      206908
 densta                                  0.661178         352
 rsp                                     0.520203         721
 depsum                                  0.396643         351
 rpro_isp                                0.364601          91
 hamilt_local                            0.222283       25900
 set_charge                              0.218774         351
 pothar                                  0.207227         357
 strnlr                                  0.145383           7
 fewald                                  0.092385         721
 fft_gq                                  0.088918         351
 wavpre_noio                             0.080428           6
 strelo                                  0.047718           7
 strehar                                 0.041798           7
 strkin                                  0.039923           7
 rcp                                     0.039545         721
 fornlr                                  0.039525           7
 redis_pw_all                            0.004049         344
 fordep                                  0.001964           7
 redis_pw_over_bands                     0.001298         357
 potlok_metagga                          0.001120         357
 brgrid                                  0.000769           1
 set_rsgf_all                            0.000725         364
 crpa_reader                             0.000260           1
 phaser                                  0.000203         263
 rotate_active_occupied_orbital          0.000105           7
 proall                                  0.000093           7
 set_dd_magatom                          0.000035          14
 vectorpot                               0.000031           1
 shift_bands_between_low_high            0.000023          13
 ---------------------------------------------------------------
  summed up times    9944.53215360641     
 
 Accumulative profile
 ====================
 
             routine name                   CPU           calls
 ---------------------------------------------------------------
 total_time                           9939.470239           1
 elmin_all                            8980.156901           7
 edwav                                7359.562219         344
 fft3d_mpi                            1121.514608      206908
 potlok                                997.747814         357
 fftbrc_mpi                            923.894948      206908
 fftbas_plan_mpi                       923.231983      206908
 fftwav_mpi                            811.865503      127867
 eddiag                                559.049189         185
 orthch                                424.843620         351
 dfftw_execute                         349.304482      620724
 set_charge                            311.901550         351
 map_forward                           311.205036      284452
 soft_charge                           293.331818         351
 m_sumb_d                              291.833622      355567
 lincom                                285.394378        1052
 m_alltoall_d                          267.648075      834540
 m_alltoallv_z                         263.113566      207616
 orth1                                 238.580199       49560
 fftext_mpi                            171.551617       49980
 redis_pw                              159.249245       99027
 map_backward                          134.900009      129364
 hamilt_local                          124.735715       25900
 choleski                              124.645327         351
 force_and_stress                      121.802083           7
 redis_proj                            116.273626       76084
 eccp                                  106.313103       96320
 rpro_isp                               93.540238          91
 kinhamil                               89.563689       25900
 ggaall_grid                            84.803893         588
 strnlr                                 66.946150           7
 map_scatter                            63.986378      207616
 racc0                                  61.739249       24080
 pw_charge                              45.022964       41067
 rpro1                                  43.528052       24080
 map_gather                             39.439371      207616
 vhamil                                 34.949743       25900
 w1_dscal                               24.432587       24080
 fornlr                                 22.659889           7
 redis_pw_over_bands                    20.841759         357
 redis_pw_all                           20.840461         344
 setdij_                                20.721032         540
 augmentation_charge                    17.584431         351
 rpromu                                 15.185137        3185
 m_bcast_z                              12.688249        2381
 proall                                  7.222418           7
 set_dd_paw                              5.122832         364
 rpromu_gemm                             4.450589      722995
 densta                                  4.066481         352
 rspher_all                              3.237419          92
 forhar                                  2.789240           7
 forloc                                  2.782163           7
 fft_gq                                  2.269399         351
 stufak                                  1.807684           7
 m_bcast_d                               1.702138         387
 fordep                                  1.639911           7
 wavpre_noio                             1.627809           6
 overl                                   1.542598       24788
 fewald                                  0.860186         721
 depsum                                  0.766527         351
 pothar                                  0.693070         357
 rsp                                     0.520203         721
 strelo                                  0.051828           7
 strehar                                 0.049726           7
 strkin                                  0.048028           7
 rcp                                     0.039545         721
 potlok_metagga                          0.001120         357
 brgrid                                  0.000769           1
 set_rsgf_all                            0.000725         364
 crpa_reader                             0.000260           1
 phaser                                  0.000203         263
 rotate_active_occupied_orbital          0.000105           7
 set_dd_magatom                          0.000035          14
 vectorpot                               0.000031           1
 shift_bands_between_low_high            0.000023          13
 ---------------------------------------------------------------
 
Profiling took   5.627277  1.903001  0.011314  0.010708 seconds
Profiling took   6.584993 seconds
