 vasp.6.3.2 27Jun22 (build Apr 26 2023 23:54:53) gamma-only                     
  
 executed on           IFC15_impi date 2023.06.17  20:12:55
 running  512 mpi-ranks, with    1 threads/rank
 distrk:  each k-point on  512 cores,    1 groups
 distr:  one band on NCORE=  32 cores,   16 groups


--------------------------------------------------------------------------------------------------------


 INCAR:
   ENCUT = 500.000000
   SIGMA = 0.010000
   EDIFF = 1.00e-05
   ALGO = A
   ISMEAR = 0
   NELM = 200
   NSW = 500
   NCORE = 32
   LCHARG = .FALSE.
   LWAVE = .FALSE.
   LREAL = Auto
   IBRION = 2
   EDIFFG = -0.05
   GGA = BF
   LUSE_VDW = .TRUE.
   ZAB_VDW = -1.8867
   LBEEFENS = .TRUE.
   DIPOL = 0.5 0.5 0.65
   IDIPOL = 3
   LDIPOL = .TRUE.

 POTCAR:    PAW_PBE Au 04Oct2007                  
 POTCAR:    PAW_PBE C 08Apr2002                   
 POTCAR:    PAW_PBE O 08Apr2002                   
 POTCAR:    PAW_PBE Sr_sv 07Sep2000               
 POTCAR:    PAW_PBE Ti_sv 26Sep2005               
 -----------------------------------------------------------------------------
|                                                                             |
|               ----> ADVICE to this user running VASP <----                  |
|                                                                             |
|     You have switched on vdW-DFT.                                           |
|     This routine was written and supplied by Jiri Klimes. We recommend      |
|     that you carefully read and cite the following publications:            |
|       J. Klimes, D.R. Bowler, A. Michelides                                 |
|          J. Phys.: Cond Matt. 22 022201 (2010)                              |
|       J. Klimes, D.R. Bowler, A. Michelides                                 |
|          Phys. Rev. B. 83, 195131 (2011)                                    |
|     and references therein.                                                 |
|                                                                             |
 -----------------------------------------------------------------------------

 POTCAR:    PAW_PBE Au 04Oct2007                  
   SHA256 =  d0044ae04e2bdce24051b198fc5c053d722a5bc6fe3c3b100514a13fc5d2db88 Au/POTCAR             
   COPYR  = (c) Copyright 04Oct2007 Georg Kresse                                                    
   COPYR  = This file is part of the software VASP. Any use, copying, and all other rights are regul
   COPYR  = If you do not have a valid VASP license, you may not use, copy or distribute this file. 
   VRHFIN =Au: s1d10                                                                                
   LEXCH  = PE                                                                                      
   EATOM  =   926.0867 eV,   68.0654 Ry                                                             
                                                                                                    
   TITEL  = PAW_PBE Au 04Oct2007                                                                    
   LULTRA =        F    use ultrasoft PP ?                                                          
   IUNSCR =        1    unscreen: 0-lin 1-nonlin 2-no                                               
   RPACOR =    2.330    partial core radius                                                         
   POMASS =  196.966; ZVAL   =   11.000    mass and valenz                                          
   RCORE  =    2.500    outmost cutoff radius                                                       
   RWIGS  =    2.840; RWIGS  =    1.503    wigner-seitz radius (au A)                               
   ENMAX  =  229.943; ENMIN  =  172.457 eV                                                          
   ICORE  =        3    local potential                                                             
   LCOR   =        T    correct aug charges                                                         
   LPAW   =        T    paw PP                                                                      
   EAUG   =  356.670                                                                                
   DEXC   =    0.000                                                                                
   RMAX   =    2.562    core radius for proj-oper                                                   
   RAUG   =    1.300    factor for augmentation sphere                                              
   RDEP   =    2.598    radius for radial grids                                                     
   RDEPT  =    2.193    core radius for aug-charge                                                  
                                                                                                    
   Atomic configuration                                                                             
   16 entries                                                                                       
     n  l   j            E        occ.                                                              
     1  0  0.50    -80748.5001   2.0000                                                             
     2  0  0.50    -14244.7466   2.0000                                                             
     2  1  1.50    -12310.9591   6.0000                                                             
     3  0  0.50     -3362.1768   2.0000                                                             
     3  1  1.50     -2801.5463   6.0000                                                             
     3  2  2.50     -2203.8206  10.0000                                                             
     4  0  0.50      -729.8168   2.0000                                                             
     4  1  1.50      -546.0527   6.0000                                                             
     4  2  2.50      -325.7302  10.0000                                                             
     4  3  3.50       -81.1472  14.0000                                                             
     5  0  0.50      -108.3201   2.0000                                                             
     5  1  1.50       -59.7479   6.0000                                                             
     5  2  2.50        -6.8783  10.0000                                                             
     6  0  0.50        -5.7602   1.0000                                                             
     6  1  1.50        -6.8029   0.0000                                                             
     5  3  2.50        -1.3606   0.0000                                                             
   Description                                                                                      
     l       E           TYP  RCUT    TYP  RCUT                                                     
     2     -6.8782861     23  2.500                                                                 
     2     -8.2388687     23  2.500                                                                 
     0     -5.7601759     23  2.500                                                                 
     0     -0.8493231     23  2.500                                                                 
     1     -2.7211652     23  2.500                                                                 
     1     27.2116520     23  2.500                                                                 
     3     -1.3605826     23  2.500                                                                 
  local pseudopotential read in
  partial core-charges read in
  partial kinetic energy density read in
  atomic valenz-charges read in
  non local Contribution for L=           2  read in
    real space projection operators read in
  non local Contribution for L=           2  read in
    real space projection operators read in
  non local Contribution for L=           0  read in
    real space projection operators read in
  non local Contribution for L=           0  read in
    real space projection operators read in
  non local Contribution for L=           1  read in
    real space projection operators read in
  non local Contribution for L=           1  read in
    real space projection operators read in
    PAW grid and wavefunctions read in
 
   number of l-projection  operators is LMAX  =           6
   number of lm-projection operators is LMMAX =          18
 
 POTCAR:    PAW_PBE C 08Apr2002                   
   SHA256 =  253f7b50bb8d59471dbedb8285d89021f4a42ed1a2c5d38a03a736e69125dd95 C/POTCAR              
   COPYR  = (c) Copyright 08Apr2002 Georg Kresse                                                    
   COPYR  = This file is part of the software VASP. Any use, copying, and all other rights are regul
   COPYR  = If you do not have a valid VASP license, you may not use, copy or distribute this file. 
   VRHFIN =C: s2p2                                                                                  
   LEXCH  = PE                                                                                      
   EATOM  =   147.1560 eV,   10.8157 Ry                                                             
                                                                                                    
   TITEL  = PAW_PBE C 08Apr2002                                                                     
   LULTRA =        F    use ultrasoft PP ?                                                          
   IUNSCR =        1    unscreen: 0-lin 1-nonlin 2-no                                               
   RPACOR =    1.200    partial core radius                                                         
   POMASS =   12.011; ZVAL   =    4.000    mass and valenz                                          
   RCORE  =    1.500    outmost cutoff radius                                                       
   RWIGS  =    1.630; RWIGS  =    0.863    wigner-seitz radius (au A)                               
   ENMAX  =  400.000; ENMIN  =  300.000 eV                                                          
   ICORE  =        2    local potential                                                             
   LCOR   =        T    correct aug charges                                                         
   LPAW   =        T    paw PP                                                                      
   EAUG   =  644.873                                                                                
   DEXC   =    0.000                                                                                
   RMAX   =    1.529    core radius for proj-oper                                                   
   RAUG   =    1.300    factor for augmentation sphere                                              
   RDEP   =    1.501    radius for radial grids                                                     
   RDEPT  =    1.300    core radius for aug-charge                                                  
                                                                                                    
   Atomic configuration                                                                             
    4 entries                                                                                       
     n  l   j            E        occ.                                                              
     1  0  0.50      -273.3789   2.0000                                                             
     2  0  0.50       -13.7508   2.0000                                                             
     2  1  0.50        -5.2854   2.0000                                                             
     3  2  1.50        -5.4423   0.0000                                                             
   Description                                                                                      
     l       E           TYP  RCUT    TYP  RCUT                                                     
     0    -13.7508458     23  1.200                                                                 
     0     -8.2022199     23  1.200                                                                 
     1     -5.2854383     23  1.500                                                                 
     1     34.0145650     23  1.500                                                                 
     2     -5.4423304      7  1.500                                                                 
  local pseudopotential read in
  partial core-charges read in
  partial kinetic energy density read in
  atomic valenz-charges read in
  non local Contribution for L=           0  read in
    real space projection operators read in
  non local Contribution for L=           0  read in
    real space projection operators read in
  non local Contribution for L=           1  read in
    real space projection operators read in
  non local Contribution for L=           1  read in
    real space projection operators read in
    PAW grid and wavefunctions read in
 
   number of l-projection  operators is LMAX  =           4
   number of lm-projection operators is LMMAX =           8
 
 POTCAR:    PAW_PBE O 08Apr2002                   
   SHA256 =  818f92134a0a090dccd8ba1447fa70422a3b330e708bb4f08108d8ae51209ddf O/POTCAR              
   COPYR  = (c) Copyright 08Apr2002 Georg Kresse                                                    
   COPYR  = This file is part of the software VASP. Any use, copying, and all other rights are regul
   COPYR  = If you do not have a valid VASP license, you may not use, copy or distribute this file. 
   VRHFIN =O: s2p4                                                                                  
   LEXCH  = PE                                                                                      
   EATOM  =   432.3788 eV,   31.7789 Ry                                                             
                                                                                                    
   TITEL  = PAW_PBE O 08Apr2002                                                                     
   LULTRA =        F    use ultrasoft PP ?                                                          
   IUNSCR =        1    unscreen: 0-lin 1-nonlin 2-no                                               
   RPACOR =    1.200    partial core radius                                                         
   POMASS =   16.000; ZVAL   =    6.000    mass and valenz                                          
   RCORE  =    1.520    outmost cutoff radius                                                       
   RWIGS  =    1.550; RWIGS  =    0.820    wigner-seitz radius (au A)                               
   ENMAX  =  400.000; ENMIN  =  300.000 eV                                                          
   ICORE  =        2    local potential                                                             
   LCOR   =        T    correct aug charges                                                         
   LPAW   =        T    paw PP                                                                      
   EAUG   =  605.392                                                                                
   DEXC   =    0.000                                                                                
   RMAX   =    1.553    core radius for proj-oper                                                   
   RAUG   =    1.300    factor for augmentation sphere                                              
   RDEP   =    1.550    radius for radial grids                                                     
   RDEPT  =    1.329    core radius for aug-charge                                                  
                                                                                                    
   Atomic configuration                                                                             
    4 entries                                                                                       
     n  l   j            E        occ.                                                              
     1  0  0.50      -514.6923   2.0000                                                             
     2  0  0.50       -23.9615   2.0000                                                             
     2  1  0.50        -9.0305   4.0000                                                             
     3  2  1.50        -9.5241   0.0000                                                             
   Description                                                                                      
     l       E           TYP  RCUT    TYP  RCUT                                                     
     0    -23.9615318     23  1.200                                                                 
     0     -9.5240782     23  1.200                                                                 
     1     -9.0304911     23  1.520                                                                 
     1      8.1634956     23  1.520                                                                 
     2     -9.5240782      7  1.500                                                                 
  local pseudopotential read in
  partial core-charges read in
  partial kinetic energy density read in
  kinetic energy density of atom read in
  atomic valenz-charges read in
  non local Contribution for L=           0  read in
    real space projection operators read in
  non local Contribution for L=           0  read in
    real space projection operators read in
  non local Contribution for L=           1  read in
    real space projection operators read in
  non local Contribution for L=           1  read in
    real space projection operators read in
    PAW grid and wavefunctions read in
 
   number of l-projection  operators is LMAX  =           4
   number of lm-projection operators is LMMAX =           8
 
 POTCAR:    PAW_PBE Sr_sv 07Sep2000               
   SHA256 =  a8389d3481648516ee67182ee030b298d280b37e29cbbf2d8595f040d757c710 Sr_sv/POTCAR          
   COPYR  = (c) Copyright 07Sep2000 Georg Kresse                                                    
   COPYR  = This file is part of the software VASP. Any use, copying, and all other rights are regul
   COPYR  = If you do not have a valid VASP license, you may not use, copy or distribute this file. 
   VRHFIN =Sr: 4s4p5s                                                                               
   LEXCH  = PE                                                                                      
   EATOM  =   843.0319 eV,   61.9611 Ry                                                             
                                                                                                    
   TITEL  = PAW_PBE Sr_sv 07Sep2000                                                                 
   LULTRA =        F    use ultrasoft PP ?                                                          
   IUNSCR =        1    unscreen: 0-lin 1-nonlin 2-no                                               
   RPACOR =    2.200    partial core radius                                                         
   POMASS =   87.620; ZVAL   =   10.000    mass and valenz                                          
   RCORE  =    2.500    outmost cutoff radius                                                       
   RWIGS  =    4.040; RWIGS  =    2.138    wigner-seitz radius (au A)                               
   ENMAX  =  229.353; ENMIN  =  172.014 eV                                                          
   RCLOC  =    2.201    cutoff for local pot                                                        
   LCOR   =        T    correct aug charges                                                         
   LPAW   =        T    paw PP                                                                      
   EAUG   =  366.804                                                                                
   DEXC   =    0.000                                                                                
   RMAX   =    2.547    core radius for proj-oper                                                   
   RAUG   =    1.300    factor for augmentation sphere                                              
   RDEP   =    2.562    radius for radial grids                                                     
   RDEPT  =    2.128    core radius for aug-charge                                                  
                                                                                                    
   Atomic configuration                                                                             
   10 entries                                                                                       
     n  l   j            E        occ.                                                              
     1  0  0.50    -15934.8930   2.0000                                                             
     2  0  0.50     -2157.6250   2.0000                                                             
     2  1  1.50     -1917.0034   6.0000                                                             
     3  0  0.50      -333.7288   2.0000                                                             
     3  1  1.50      -256.0992   6.0000                                                             
     3  2  2.50      -127.9971  10.0000                                                             
     4  0  0.50       -40.8953   2.0000                                                             
     5  0  0.50        -3.5257   1.9990                                                             
     4  1  1.50       -22.8179   6.0000                                                             
     4  2  1.50        -1.2815   0.0010                                                             
   Description                                                                                      
     l       E           TYP  RCUT    TYP  RCUT                                                     
     0    -40.8953213     23  2.480                                                                 
     0     -3.5257161     23  2.480                                                                 
     1    -22.8178632     23  2.500                                                                 
     1    -24.1784458     23  2.500                                                                 
     2     -1.2814598     23  2.500                                                                 
     2      0.2279365     23  2.500                                                                 
  local pseudopotential read in
  partial core-charges read in
  partial kinetic energy density read in
  atomic valenz-charges read in
  non local Contribution for L=           0  read in
    real space projection operators read in
  non local Contribution for L=           0  read in
    real space projection operators read in
  non local Contribution for L=           1  read in
    real space projection operators read in
  non local Contribution for L=           1  read in
    real space projection operators read in
  non local Contribution for L=           2  read in
    real space projection operators read in
  non local Contribution for L=           2  read in
    real space projection operators read in
    PAW grid and wavefunctions read in
 
   number of l-projection  operators is LMAX  =           6
   number of lm-projection operators is LMMAX =          18
 
 POTCAR:    PAW_PBE Ti_sv 26Sep2005               
   SHA256 =  4d747badb5a5ea28d858fbac70885b3f8929d6fd9e5b0dbe1ecb9878dc164da1 Ti_sv/POTCAR          
   COPYR  = (c) Copyright 26Sep2005 Georg Kresse                                                    
   COPYR  = This file is part of the software VASP. Any use, copying, and all other rights are regul
   COPYR  = If you do not have a valid VASP license, you may not use, copy or distribute this file. 
   VRHFIN =Ti: 3p4s3d                                                                               
   LEXCH  = PE                                                                                      
   EATOM  =  1588.0892 eV,  116.7213 Ry                                                             
                                                                                                    
   TITEL  = PAW_PBE Ti_sv 26Sep2005                                                                 
   LULTRA =        F    use ultrasoft PP ?                                                          
   IUNSCR =        1    unscreen: 0-lin 1-nonlin 2-no                                               
   RPACOR =    2.000    partial core radius                                                         
   POMASS =   47.880; ZVAL   =   12.000    mass and valenz                                          
   RCORE  =    2.300    outmost cutoff radius                                                       
   RWIGS  =    2.300; RWIGS  =    1.217    wigner-seitz radius (au A)                               
   ENMAX  =  274.610; ENMIN  =  205.957 eV                                                          
   ICORE  =        3    local potential                                                             
   LCOR   =        T    correct aug charges                                                         
   LPAW   =        T    paw PP                                                                      
   EAUG   =  482.848                                                                                
   RMAX   =    2.348    core radius for proj-oper                                                   
   RAUG   =    1.300    factor for augmentation sphere                                              
   RDEP   =    2.381    radius for radial grids                                                     
   RDEPT  =    1.930    core radius for aug-charge                                                  
                                                                                                    
   Atomic configuration                                                                             
    8 entries                                                                                       
     n  l   j            E        occ.                                                              
     1  0  0.50     -4865.3608   2.0000                                                             
     2  0  0.50      -533.1368   2.0000                                                             
     2  1  1.50      -440.5031   6.0000                                                             
     3  0  0.50       -59.3186   2.0000                                                             
     4  0  0.50        -3.7291   1.0000                                                             
     3  1  1.50       -35.7012   6.0000                                                             
     3  2  2.50        -1.9157   3.0000                                                             
     4  3  2.50        -1.3606   0.0000                                                             
   Description                                                                                      
     l       E           TYP  RCUT    TYP  RCUT                                                     
     0    -59.3185931     23  1.800                                                                 
     0     -3.7290822     23  2.300                                                                 
     1    -35.7012045     23  2.300                                                                 
     1     -1.3605826     23  2.300                                                                 
     2     -1.9156920     23  2.300                                                                 
     2     -0.0236318     23  2.300                                                                 
     3     -1.3605826     23  2.300                                                                 
  local pseudopotential read in
  partial core-charges read in
  partial kinetic energy density read in
  atomic valenz-charges read in
  non local Contribution for L=           0  read in
    real space projection operators read in
  non local Contribution for L=           0  read in
    real space projection operators read in
  non local Contribution for L=           1  read in
    real space projection operators read in
  non local Contribution for L=           1  read in
    real space projection operators read in
  non local Contribution for L=           2  read in
    real space projection operators read in
  non local Contribution for L=           2  read in
    real space projection operators read in
    PAW grid and wavefunctions read in
 
   number of l-projection  operators is LMAX  =           6
   number of lm-projection operators is LMMAX =          18
 
 Optimization of the real space projectors (new method)

 maximal supplied QI-value         = 15.12
 optimisation between [QCUT,QGAM] = [ 11.34, 22.83] = [ 36.00,145.93] Ry 
 Optimized for a Real-space Cutoff    1.39 Angstroem

   l    n(q)    QCUT    max X(q) W(low)/X(q) W(high)/X(q)  e(spline) 
   2      9    11.338    60.898    0.39E-03    0.42E-03    0.21E-06
   2      9    11.338    58.894    0.40E-03    0.42E-03    0.22E-06
   0      9    11.338   109.617    0.13E-03    0.20E-04    0.13E-06
   0      9    11.338    75.026    0.13E-03    0.20E-04    0.13E-06
   1      9    11.338    16.344    0.33E-04    0.24E-03    0.18E-06
   1      9    11.338    10.160    0.26E-04    0.19E-03    0.15E-06
 Optimization of the real space projectors (new method)

 maximal supplied QI-value         = 25.13
 optimisation between [QCUT,QGAM] = [ 11.31, 22.87] = [ 35.82,146.48] Ry 
 Optimized for a Real-space Cutoff    1.00 Angstroem

   l    n(q)    QCUT    max X(q) W(low)/X(q) W(high)/X(q)  e(spline) 
   0      7    11.310   115.676    0.43E-03    0.13E-02    0.19E-06
   0      7    11.310    87.132    0.43E-03    0.13E-02    0.18E-06
   1      6    11.310     4.429    0.42E-03    0.74E-03    0.11E-06
   1      6    11.310     2.733    0.34E-03    0.55E-03    0.92E-07
 Optimization of the real space projectors (new method)

 maximal supplied QI-value         = 24.76
 optimisation between [QCUT,QGAM] = [ 11.39, 22.77] = [ 36.31,145.25] Ry 
 Optimized for a Real-space Cutoff    1.00 Angstroem

   l    n(q)    QCUT    max X(q) W(low)/X(q) W(high)/X(q)  e(spline) 
   0      7    11.387    20.381    0.39E-03    0.13E-02    0.15E-06
   0      7    11.387    15.268    0.42E-03    0.14E-02    0.17E-06
   1      6    11.387     5.964    0.41E-03    0.11E-02    0.17E-06
   1      6    11.387     5.382    0.39E-03    0.87E-03    0.15E-06
 Optimization of the real space projectors (new method)

 maximal supplied QI-value         = 15.12
 optimisation between [QCUT,QGAM] = [ 11.34, 22.83] = [ 36.00,145.93] Ry 
 Optimized for a Real-space Cutoff    1.56 Angstroem

   l    n(q)    QCUT    max X(q) W(low)/X(q) W(high)/X(q)  e(spline) 
   0     11    11.338    11.565    0.26E-04    0.80E-05    0.70E-07
   0     11    11.338    10.214    0.41E-04    0.15E-04    0.15E-06
   1     10    11.338   189.983    0.18E-03    0.52E-04    0.42E-06
   1     10    11.338   193.105    0.19E-03    0.52E-04    0.42E-06
   2     10    11.338   115.941    0.22E-03    0.42E-03    0.43E-06
   2     10    11.338    76.444    0.21E-03    0.41E-03    0.42E-06
 Optimization of the real space projectors (new method)

 maximal supplied QI-value         = 16.25
 optimisation between [QCUT,QGAM] = [ 11.38, 22.75] = [ 36.24,144.96] Ry 
 Optimized for a Real-space Cutoff    1.27 Angstroem

   l    n(q)    QCUT    max X(q) W(low)/X(q) W(high)/X(q)  e(spline) 
   0      9    11.376    12.277    0.53E-04    0.25E-04    0.25E-07
   0      9    11.376    11.419    0.89E-04    0.67E-05    0.35E-07
   1      8    11.376     4.010    0.13E-03    0.11E-03    0.29E-07
   1      8    11.376     6.182    0.94E-04    0.19E-03    0.11E-06
   2      8    11.376    47.177    0.13E-03    0.88E-03    0.24E-06
   2      8    11.376    42.437    0.13E-03    0.86E-03    0.23E-06
 -----------------------------------------------------------------------------
|                                                                             |
|               ----> ADVICE to this user running VASP <----                  |
|                                                                             |
|     You enforced a specific xc type in the INCAR file but a different       |
|     type was found in the POTCAR file.                                      |
|     I HOPE YOU KNOW WHAT YOU ARE DOING!                                     |
|                                                                             |
 -----------------------------------------------------------------------------

  PAW_PBE Au 04Oct2007                  :
 energy of atom  1       EATOM= -926.0867
 kinetic energy error for atom=    0.0042 (will be added to EATOM!!)
  PAW_PBE C 08Apr2002                   :
 energy of atom  2       EATOM= -147.1560
 kinetic energy error for atom=    0.0076 (will be added to EATOM!!)
  PAW_PBE O 08Apr2002                   :
 energy of atom  3       EATOM= -432.3788
 kinetic energy error for atom=    0.0224 (will be added to EATOM!!)
  PAW_PBE Sr_sv 07Sep2000               :
 energy of atom  4       EATOM= -843.0319
 kinetic energy error for atom=    0.0012 (will be added to EATOM!!)
  PAW_PBE Ti_sv 26Sep2005               :
 energy of atom  5       EATOM=-1588.0892
 kinetic energy error for atom=    0.0046 (will be added to EATOM!!)
 
 
 POSCAR: Au  C  O Sr Ti
  positions in direct lattice
  velocities in cartesian coordinates
 exchange correlation table for  LEXCH =       17
   RHO(1)=    0.500       N(1)  =     2000
   RHO(2)=  100.500       N(2)  =     4000
 


--------------------------------------------------------------------------------------------------------


 ion  position               nearest neighbor table
   1  0.717  0.526  0.753-  49 2.71  48 2.73  40 2.79  17 2.84  29 2.85   3 2.95  19 2.99
   2  0.706  0.757  0.688- 125 2.04 165 2.05  10 2.63  47 2.78 426 3.13  49 3.23 341 3.81 340 4.19

   3  0.657  0.443  0.813-  38 2.85  17 2.85   5 2.86  39 2.87  16 2.90   1 2.95  48 3.21  19 3.55

   4  0.368  0.618  0.820-  35 2.76  24 2.78  42 2.85  13 2.85  27 2.90  23 2.97
   5  0.570  0.510  0.857-   7 2.76  48 2.83   3 2.86  38 2.88  24 2.90  20 2.90  39 3.00  32 3.47

   6  0.662  0.189  0.751-  51 2.01  36 2.75  30 2.78  28 2.80  12 3.57
   7  0.472  0.449  0.878-   5 2.76  46 2.76  24 2.80  13 2.83  39 2.83
   8  0.517  0.377  0.732-  38 2.81  26 2.83  22 2.86  12 2.88  37 2.90  39 2.95  11 3.09  46 3.20
                            36 3.29 345 4.14
   9  0.283  0.338  0.702- 181 2.06  44 2.77  14 2.81  11 2.91  34 3.10 331 3.54 342 4.09
  10  0.670  0.681  0.749-   2 2.63  49 2.68  33 2.73  48 2.78  29 3.03  47 3.09  21 3.34
  11  0.398  0.382  0.690- 135 2.03 121 2.14  44 2.77  45 2.89   9 2.91  14 3.00  22 3.08   8 3.09
                           331 3.38  43 3.59 345 3.77
  12  0.617  0.322  0.696- 162 2.03  16 2.75  36 2.80  30 2.82  19 2.86   8 2.88  28 2.88 349 3.53
                             6 3.57 345 4.22
  13  0.376  0.492  0.833-  27 2.82   7 2.83  22 2.83  14 2.84   4 2.85  24 2.89  46 3.03
  14  0.326  0.414  0.769-   9 2.81  44 2.83  13 2.84  27 2.89  45 2.92  34 2.97  46 2.98  11 3.00
                            22 3.13
  15  0.422  0.698  0.699- 155 2.03  25 2.73  41 2.77  23 2.78  50 2.90  21 2.95  31 3.24 335 4.05
                           329 4.09
  16  0.700  0.346  0.757-  12 2.75  30 2.79  17 2.81  36 2.82   3 2.90  40 2.92  19 3.15
  17  0.775  0.430  0.795-  40 2.71  16 2.81   1 2.84   3 2.85
  18  0.256  0.592  0.694- 164 2.03 142 2.11  35 2.70  34 2.82  27 2.89  45 3.02  31 3.54 329 3.57
                           347 3.70
  19  0.649  0.446  0.695- 178 2.17  40 2.77  12 2.86  29 2.86   1 2.99  38 3.01  16 3.15  37 3.35
                           349 3.49   3 3.55
  20  0.564  0.639  0.861-  48 2.77  33 2.81  24 2.83  42 2.85   5 2.90  32 2.93
  21  0.543  0.666  0.701- 179 2.11  32 2.75  29 2.87  25 2.88  47 2.94  15 2.95  33 3.18  50 3.30
                            10 3.34 335 3.47
  22  0.444  0.475  0.756-  13 2.83  38 2.84  25 2.86   8 2.86  37 2.88  45 2.90  46 2.90  11 3.08
                            14 3.13  32 3.36
  23  0.373  0.738  0.778-  35 2.75  15 2.78  41 2.81  42 2.81  50 2.86   4 2.97  31 3.07
  24  0.463  0.572  0.863-   4 2.78   7 2.80  20 2.83  13 2.89   5 2.90  42 2.91  32 2.93
  25  0.452  0.580  0.703- 123 2.10  32 2.68  37 2.69  15 2.73  22 2.86  21 2.88  45 3.03 335 3.63

  26  0.487  0.269  0.775-  43 2.74  36 2.77   8 2.83  44 2.87  28 2.87  46 2.89  39 3.34
  27  0.289  0.537  0.778-  35 2.80  34 2.81  13 2.82  18 2.89  14 2.89   4 2.90  45 2.91
  28  0.558  0.211  0.711- 143 2.09   6 2.80  43 2.82  26 2.87  12 2.88  36 2.93 344 3.96
  29  0.623  0.570  0.704- 163 2.08  49 2.83   1 2.85  19 2.86  21 2.87  48 2.91  38 2.93  10 3.03
                            37 3.29  32 3.48 340 3.70
  30  0.721  0.261  0.691- 126 2.02 152 2.06   6 2.78  16 2.79  12 2.82 432 3.07 349 4.04 333 4.16

  31  0.292  0.746  0.698- 166 2.06 142 2.06  35 2.77  41 2.83  23 3.07  15 3.24  18 3.54 348 4.23
                           329 4.23
  32  0.513  0.604  0.776-  25 2.68  21 2.75  42 2.84  38 2.92  20 2.93  24 2.93  48 3.02  33 3.18
                            22 3.36   5 3.47  29 3.48
  33  0.578  0.726  0.793-  50 2.73  10 2.73  47 2.78  20 2.81  42 3.01  32 3.18  21 3.18  48 3.44

  34  0.240  0.469  0.709- 141 2.11  45 2.69  27 2.81  18 2.82  14 2.97   9 3.10 342 4.16
  35  0.284  0.661  0.765-  18 2.70  23 2.75   4 2.76  31 2.77  27 2.80
  36  0.602  0.284  0.784-   6 2.75  26 2.77  12 2.80  39 2.81  16 2.82  28 2.93   8 3.29
  37  0.514  0.485  0.678- 178 2.11  78 2.16  25 2.69  38 2.78  22 2.88   8 2.90 437 3.13  29 3.29
                            19 3.35 345 3.57 335 4.03
  38  0.563  0.486  0.762-  37 2.78   8 2.81  22 2.84   3 2.85   5 2.88  32 2.92  29 2.93  48 3.00
                            19 3.01  39 3.01
  39  0.551  0.383  0.827-  36 2.81   7 2.83   3 2.87  46 2.90   8 2.95   5 3.00  38 3.01  26 3.34

  40  0.765  0.432  0.705- 153 2.01  17 2.71  19 2.77   1 2.79  16 2.92 317 3.75 349 4.25
  41  0.391  0.817  0.706- 122 2.07  15 2.77  23 2.81  50 2.83  31 2.83 348 3.64 332 4.12
  42  0.463  0.695  0.830-  23 2.81  32 2.84   4 2.85  20 2.85  24 2.91  50 2.92  33 3.01
  43  0.441  0.228  0.698- 134 2.02 121 2.16  26 2.74  28 2.82  44 2.85  11 3.59 344 3.88 321 4.33

  44  0.372  0.298  0.755-  11 2.77   9 2.77  46 2.79  14 2.83  43 2.85  26 2.87
  45  0.349  0.500  0.698- 123 2.11  34 2.69  11 2.89  22 2.90  27 2.91  14 2.92  18 3.02  25 3.03
                           329 4.16 331 4.27
  46  0.430  0.372  0.814-   7 2.76  44 2.79  26 2.89  39 2.90  22 2.90  14 2.98  13 3.03   8 3.20

  47  0.596  0.785  0.713- 156 2.09   2 2.78  33 2.78  50 2.94  21 2.94  10 3.09 341 4.18 332 4.35

  48  0.635  0.584  0.800-   1 2.73  20 2.77  10 2.78   5 2.83  29 2.91  38 3.00  32 3.02   3 3.21
                            33 3.44
  49  0.734  0.616  0.694- 124 2.09 165 2.11  10 2.68   1 2.71  29 2.83   2 3.23 340 3.41 322 3.71

  50  0.485  0.778  0.757-  33 2.73  41 2.83  23 2.86  15 2.90  42 2.92  47 2.94  21 3.30
  51  0.727  0.131  0.751- 250 1.14   6 2.01
  52  0.415  0.812  0.548- 428 1.95 423 1.97 360 2.73 369 2.77 348 2.92 332 3.10
  53  0.251  0.063  0.547- 447 1.84 433 2.24 361 2.68 356 2.73 321 3.03 343 3.27
  54  0.746  0.558  0.545- 427 1.95 396 1.97 359 2.61 372 2.78 340 2.84 322 3.23
  55  0.749  0.808  0.546- 426 1.83 448 2.03 357 2.67 323 2.75 341 3.15 318 3.31
  56  0.250  0.314  0.546- 445 1.85 431 2.30 331 2.65 355 2.73 362 2.73 342 3.04
  57  0.583  0.311  0.545- 400 1.91 434 2.09 387 2.73 358 2.75 345 2.79 349 2.86
  58  0.253  0.813  0.551- 435 1.82 416 2.08 360 2.78 348 2.88 368 2.89 346 3.17
  59  0.583  0.062  0.546- 395 1.84 440 2.23 370 2.69 353 2.69 344 2.99 333 3.03
  60  0.586  0.815  0.550- 397 1.92 438 2.06 357 2.75 369 2.81 341 2.93 332 3.02
  61  0.748  0.311  0.548- 432 1.95 425 2.00 349 2.65 358 2.75 386 2.85 317 3.02
  62  0.581  0.560  0.549- 437 1.88 401 2.10 335 2.69 371 2.75 340 2.83 359 2.86
  63  0.252  0.559  0.544- 446 1.92 436 2.04 363 2.63 354 2.78 329 2.87 347 3.19
  64  0.416  0.320  0.553- 429 1.97 424 1.98 345 2.65 331 2.73 387 2.98 362 2.99
  65  0.577  0.436  0.552- 437 1.94 400 2.06 345 2.62 371 2.77 349 2.90 359 3.03
  66  0.417  0.065  0.547- 449 1.84 430 2.25 361 2.74 353 2.77 344 2.94 321 3.07
  67  0.085  0.813  0.547- 452 1.85 458 2.18 368 2.67 385 2.73 346 3.16 320 3.33
  68  0.082  0.564  0.546- 451 1.84 443 2.23 364 2.69 354 2.74 347 2.83
  69  0.086  0.313  0.547- 444 1.84 442 2.24 355 2.68 384 2.76 342 2.88 339 3.36
  70  0.082  0.063  0.548- 402 1.84 460 2.21 383 2.70 356 2.71 366 3.19 343 3.29
  71  0.916  0.939  0.546- 453 1.84 439 2.20 377 2.65 383 2.70 318 3.24 320 3.32
  72  0.913  0.689  0.545- 454 1.84 457 2.24 323 2.63 385 2.72 322 2.82
  73  0.584  0.938  0.546- 397 1.84 440 2.24 370 2.68 353 2.70 341 2.95 332 3.05
  74  0.917  0.189  0.545- 398 1.85 455 2.18 386 2.66 384 2.69 337 3.21 366 3.33
  75  0.916  0.438  0.546- 399 1.85 407 2.24 372 2.68 364 2.70 317 2.91 339 3.36
  76  0.580  0.686  0.547- 401 1.92 438 2.13 335 2.65 369 2.71 340 2.81 357 2.85
  77  0.252  0.937  0.545- 416 1.83 433 2.22 361 2.68 356 2.74 348 2.93 346 3.30
  78  0.498  0.505  0.609- 456 2.10  37 2.16 437 2.24 335 2.74 345 3.00 371 3.26
  79  0.917  0.564  0.547- 454 1.84 407 2.22 364 2.69 372 2.72 322 2.86
  80  0.420  0.565  0.556- 456 1.89 450 2.13 335 2.65 329 2.71 371 2.92 363 3.05
  81  0.915  0.813  0.547- 453 1.84 457 2.18 323 2.68 385 2.72 318 3.23 320 3.30
  82  0.084  0.939  0.546- 452 1.84 460 2.19 356 2.67 383 2.67 346 3.26 320 3.35
  83  0.249  0.683  0.552- 435 1.96 446 1.98 329 2.73 347 2.89 368 2.92 360 2.93
  84  0.749  0.934  0.548- 448 1.83 441 2.27 370 2.77 377 2.78 341 2.92 318 3.15
  85  0.752  0.680  0.553- 396 1.96 426 1.97 340 2.64 322 2.83 323 2.97 357 3.02
  86  0.752  0.435  0.549- 425 1.94 427 2.04 349 2.72 372 2.84 359 2.86 317 2.93
  87  0.423  0.444  0.546- 456 1.88 424 2.07 371 2.61 363 2.84 345 2.87 331 3.12
  88  0.423  0.688  0.547- 450 1.95 428 2.00 369 2.67 335 2.76 360 2.88 329 2.94
  89  0.748  0.183  0.551- 432 1.91 459 1.96 358 2.82 386 2.92 333 2.93 337 3.10
  90  0.416  0.937  0.546- 423 1.85 430 2.25 361 2.71 353 2.72 348 2.89 332 3.07
  91  0.499  0.253  0.590- 429 2.00 434 2.04 387 2.65 345 2.65 344 2.95
  92  0.416  0.191  0.547- 429 1.85 449 2.03 362 2.72 387 2.73 344 3.10 321 3.25
  93  0.087  0.690  0.545- 451 1.85 458 2.22 368 2.62 385 2.72 347 2.78
  94  0.082  0.439  0.545- 444 1.84 443 2.22 364 2.66 354 2.68 342 3.07 339 3.37
  95  0.084  0.189  0.546- 402 1.85 442 2.18 355 2.64 384 2.67 366 3.31 343 3.37
  96  0.499  0.126  0.500- 449 1.98 395 1.99 387 2.73 319 2.78 353 2.82 344 3.20
  97  1.000  0.501  0.594- 407 1.95 443 1.95 364 2.62 339 2.95 338 2.97
  98  0.581  0.185  0.550- 395 1.95 434 1.98 387 2.76 358 2.85 344 2.91 333 2.98
  99  1.000  0.753  0.592- 458 1.94 457 1.96 385 2.57 320 2.86 338 3.21
 100  0.334  1.000  0.592- 430 2.00 433 2.03 361 2.58 348 2.73 321 2.76
 101  1.000  0.999  0.593- 439 2.00 460 2.01 383 2.60 366 2.87 320 2.90
 102  0.001  0.250  0.592- 455 1.94 442 1.99 384 2.58 339 2.93 366 2.96
 103  0.333  0.497  0.591- 456 1.85 436 2.16 363 2.70 331 2.75 329 2.85
 104  0.336  0.741  0.591- 428 1.91 435 2.07 329 2.61 360 2.68 348 3.09
 105  0.663  0.247  0.591- 434 1.88 432 2.14 358 2.65 349 2.80 333 2.80
 106  0.666  0.000  0.592- 440 2.01 441 2.01 370 2.59 341 2.70 333 2.80
 107  0.666  0.742  0.590- 438 1.96 426 2.04 340 2.58 357 2.64 341 3.15
 108  0.667  0.494  0.592- 437 1.82 427 2.13 349 2.72 359 2.73 340 2.96
 109  0.167  0.998  0.592- 433 1.98 460 2.01 356 2.57 346 2.90 343 2.91
 110  0.168  0.249  0.593- 431 1.93 442 2.04 355 2.61 342 2.77 343 2.94
 111  0.171  0.750  0.595- 435 1.86 458 2.15 368 2.76 347 2.76 346 2.84
 112  0.248  0.436  0.549- 436 1.93 445 1.98 331 2.65 363 2.81 354 2.84 342 3.04
 113  0.165  0.503  0.587- 436 1.83 443 2.05 354 2.56 347 2.82 342 2.99
 114  0.335  0.254  0.593- 429 1.89 431 2.07 331 2.67 362 2.71 321 3.07
 115  0.500  0.000  0.591- 430 2.00 440 2.00 353 2.57 344 2.76 332 2.80
 116  0.833  0.875  0.499- 448 1.95 453 2.02 323 2.74 382 2.75 377 2.81
 117  0.749  0.937  0.640- 441 1.80 318 2.49 341 2.54
 118  0.832  0.002  0.592- 441 1.99 439 2.03 377 2.57 337 2.81 318 2.91
 119  0.502  0.757  0.593- 438 1.98 428 2.03 369 2.67 332 2.73 335 2.93
 120  0.418  0.065  0.640- 430 1.80 321 2.51 344 2.54
 121  0.429  0.305  0.655-  11 2.14  43 2.16 429 2.32 345 2.90 331 3.44
 122  0.414  0.812  0.640- 428 1.95  41 2.07 348 2.63 332 2.68
 123  0.397  0.551  0.652-  25 2.10  45 2.11 456 2.17 329 2.80 335 3.50
 124  0.753  0.569  0.635- 427 1.92  49 2.09 322 2.61 340 2.72
 125  0.741  0.810  0.640- 426 1.98   2 2.04 341 2.59 318 2.69
 126  0.747  0.313  0.640-  30 2.02 432 2.04 349 2.65 317 2.77
 127  0.748  0.068  0.639- 441 1.81 333 2.50 337 2.51
 128  0.084  0.312  0.640- 442 1.80 339 2.48 342 2.51
 129  0.667  0.875  0.499- 397 1.97 448 2.00 357 2.74 352 2.76 370 2.80 341 3.24
 130  0.087  0.562  0.641- 443 1.80 338 2.48 347 2.53
 131  0.084  0.061  0.642- 460 1.80 343 2.49 366 2.51
 132  0.087  0.436  0.639- 443 1.79 342 2.51 339 2.52
 133  0.083  0.186  0.641- 442 1.79 366 2.50 343 2.50
 134  0.419  0.188  0.640- 429 1.99  43 2.02 344 2.62 321 2.67
 135  0.415  0.419  0.630-  11 2.03 456 2.07 345 2.53 331 2.59
 136  0.084  0.936  0.641- 460 1.80 346 2.48 320 2.49
 137  0.083  0.687  0.640- 458 1.79 338 2.46 347 2.52
 138  0.913  0.436  0.640- 407 1.80 317 2.52 339 2.53
 139  0.916  0.688  0.639- 457 1.80 338 2.46 322 2.50
 140  0.914  0.937  0.641- 439 1.80 318 2.47 320 2.50
 141  0.241  0.442  0.642- 436 1.90  34 2.11 342 2.62 331 2.92
 142  0.254  0.677  0.663-  31 2.06  18 2.11 329 3.02 347 3.13
 143  0.578  0.191  0.645- 434 1.93  28 2.09 344 2.68 333 2.77
 144  0.252  0.930  0.637- 433 1.81 346 2.47 348 2.49
 145  0.084  0.812  0.642- 458 1.79 346 2.48 320 2.53
 146  0.917  0.812  0.361- 394 1.97 388 2.79 382 2.79
 147  0.833  0.503  0.589- 427 1.83 407 2.06 372 2.58 322 2.81 317 2.94
 148  0.831  0.248  0.591- 432 1.84 455 2.12 386 2.65 317 2.81 337 2.86
 149  0.831  0.751  0.593- 426 1.87 457 2.09 323 2.71 322 2.79 318 2.90
 150  0.582  0.936  0.639- 440 1.80 332 2.50 341 2.52
 151  0.253  0.186  0.641- 431 1.74 321 2.52 343 2.54
 152  0.745  0.195  0.647- 432 2.02  30 2.06 333 2.74 337 2.80
 153  0.755  0.434  0.638-  40 2.01 427 2.01 317 2.61 349 2.79
 154  0.417  0.935  0.640- 430 1.79 332 2.53 348 2.57
 155  0.421  0.676  0.633-  15 2.03 428 2.04 335 2.55 329 2.62
 156  0.591  0.810  0.646- 438 1.94  47 2.09 341 2.64 332 2.83
 157  0.916  0.063  0.641- 439 1.80 337 2.50 366 2.50
 158  0.912  0.562  0.642- 407 1.79 338 2.47 322 2.53
 159  0.914  0.312  0.640- 455 1.80 339 2.51 317 2.52
 160  0.914  0.813  0.642- 457 1.79 318 2.50 320 2.51
 161  0.583  0.067  0.639- 440 1.79 333 2.51 344 2.51
 162  0.583  0.320  0.634- 434 1.97  12 2.03 345 2.52 349 2.67
 163  0.591  0.565  0.639- 437 1.98  29 2.08 340 2.64 335 2.81
 164  0.247  0.574  0.629- 436 1.99  18 2.03 347 2.54 329 2.55
 165  0.754  0.693  0.657-   2 2.05  49 2.11 426 2.39 322 2.99 340 3.19
 166  0.262  0.799  0.647- 435 1.96  31 2.06 348 2.80 346 2.95
 167  0.251  0.059  0.642- 433 1.79 321 2.49 343 2.51
 168  0.917  0.563  0.361- 393 1.97 381 2.79 365 2.79
 169  0.500  0.374  0.500- 424 1.98 400 1.99 351 2.79 371 2.80 387 2.82 345 2.86
 170  0.500  0.873  0.501- 423 1.98 397 1.99 369 2.69 328 2.81 353 2.82 332 3.26
 171  0.500  0.621  0.500- 401 1.98 450 1.98 371 2.70 324 2.79 335 2.82 369 2.95
 172  0.832  0.623  0.500- 396 1.89 454 2.05 372 2.75 365 2.79 323 2.88 322 3.10
 173  0.252  0.188  0.547- 447 1.87 431 2.13 362 2.64 355 2.72 321 3.14 343 3.33
 174  0.832  0.373  0.500- 425 1.89 399 2.05 386 2.78 326 2.78 372 2.84 317 3.10
 175  0.833  0.124  0.500- 459 1.95 398 2.02 386 2.77 377 2.78 327 2.79 337 3.45
 176  0.167  0.376  0.498- 445 1.90 444 2.02 367 2.73 354 2.76 355 2.87 342 3.29
 177  0.168  0.624  0.500- 446 1.89 451 2.06 354 2.78 350 2.79 368 2.84 347 3.05
 178  0.581  0.439  0.647-  37 2.11 437 2.12  19 2.17 345 2.87 349 3.04
 179  0.581  0.685  0.639- 438 1.87  21 2.11 335 2.63 340 2.78
 180  0.916  0.186  0.640- 455 1.79 337 2.50 366 2.52
 181  0.249  0.316  0.641- 431 1.94   9 2.06 342 2.58 331 2.66
 182  0.168  0.873  0.500- 416 1.93 452 2.02 368 2.72 334 2.79 356 2.86 346 3.54
 183  0.748  0.060  0.545- 459 1.84 441 2.21 370 2.64 377 2.69 333 3.09 337 3.27
 184  0.167  0.124  0.499- 447 1.96 402 2.00 356 2.76 325 2.77 355 2.77
 185  0.916  0.437  0.454- 393 1.98 399 2.10 326 2.77 372 2.77 330 2.80 364 2.92
 186  0.916  0.187  0.453- 408 1.98 398 2.11 327 2.76 386 2.77 336 2.79 384 2.92
 187  0.583  0.937  0.454- 414 2.00 397 2.06 328 2.79 352 2.81 353 2.85 370 2.86
 188  0.583  0.686  0.455- 401 1.90 410 2.02 324 2.78 373 2.80 357 2.84 369 2.86
 189  0.583  0.439  0.456- 400 2.00 411 2.01 371 2.70 359 2.78 351 2.84 374 2.86
 190  0.250  0.936  0.454- 416 1.93 417 2.01 376 2.78 334 2.78 361 2.89 356 2.92
 191  0.665  0.626  0.503- 401 1.93 396 2.06 340 2.71 359 2.81 357 2.82 373 2.88
 192  0.585  0.563  0.455- 401 1.99 411 2.01 371 2.77 359 2.78 373 2.79 324 2.83
 193  0.583  0.064  0.454- 414 2.00 395 2.01 319 2.78 375 2.79 370 2.87 353 2.88
 194  0.917  0.687  0.361- 394 1.97 381 2.79 365 2.79
 195  0.917  0.437  0.361- 393 1.97 330 2.79 326 2.79
 196  0.917  0.188  0.361- 408 1.97 336 2.79 327 2.79
 197  0.583  0.938  0.361- 414 1.97 328 2.79 352 2.79
 198  0.583  0.687  0.361- 410 1.97 324 2.79 373 2.79
 199  0.583  0.437  0.361- 411 1.97 351 2.79 374 2.79
 200  0.583  0.188  0.361- 412 1.97 319 2.79 375 2.79
 201  0.250  0.938  0.361- 417 1.97 334 2.79 376 2.79
 202  0.917  0.938  0.361- 409 1.97 388 2.79 382 2.79
 203  0.250  0.687  0.361- 422 1.97 350 2.79 380 2.79
 204  0.250  0.188  0.361- 404 1.97 325 2.79 379 2.79
 205  0.750  0.938  0.361- 420 1.97 352 2.79 382 2.79
 206  0.750  0.687  0.361- 418 1.97 373 2.79 365 2.79
 207  0.750  0.437  0.361- 406 1.97 374 2.79 326 2.79
 208  0.750  0.188  0.361- 419 1.97 375 2.79 327 2.79
 209  0.417  0.938  0.361- 403 1.97 376 2.79 328 2.79
 210  0.417  0.687  0.361- 421 1.97 380 2.79 324 2.79
 211  0.417  0.437  0.361- 405 1.97 378 2.79 351 2.79
 212  0.250  0.437  0.361- 415 1.97 367 2.79 378 2.79
 213  0.083  0.063  0.361- 392 1.97 336 2.79 325 2.79
 214  0.915  0.687  0.453- 394 1.98 454 2.10 365 2.75 381 2.80 323 2.80 385 2.94
 215  0.665  0.379  0.503- 400 1.94 425 2.06 349 2.69 359 2.71 374 2.89 358 2.91
 216  0.334  0.378  0.503- 424 1.94 445 2.08 363 2.70 331 2.70 378 2.88 362 2.91
 217  0.336  0.625  0.504- 450 1.92 446 2.09 329 2.73 360 2.81 363 2.81 380 2.92
 218  0.918  0.063  0.547- 398 1.85 439 2.20 383 2.70 377 2.72 337 3.14 366 3.21
 219  0.250  0.188  0.454- 404 1.97 447 2.13 362 2.74 325 2.81 379 2.81 355 2.85
 220  0.749  0.938  0.455- 448 1.95 420 2.00 352 2.82 382 2.84 370 2.84 377 2.88
 221  0.749  0.689  0.457- 396 1.96 418 2.04 357 2.78 323 2.84 373 2.85 365 2.88
 222  0.749  0.438  0.456- 425 1.97 406 2.01 359 2.71 374 2.83 372 2.84 326 2.85
 223  0.751  0.190  0.456- 419 1.99 459 2.10 358 2.75 386 2.79 327 2.84 375 2.86
 224  0.417  0.936  0.454- 423 1.99 403 2.01 328 2.77 376 2.79 353 2.87 361 2.91
 225  0.417  0.685  0.455- 450 1.91 421 2.04 324 2.77 380 2.78 360 2.84 369 2.91
 226  0.416  0.435  0.454- 424 1.96 405 2.01 378 2.77 351 2.77 371 2.83 363 2.85
 227  0.085  0.687  0.453- 389 1.97 451 2.09 350 2.75 381 2.80 368 2.82 385 2.94
 228  0.084  0.937  0.453- 392 1.99 452 2.11 334 2.77 388 2.79 356 2.90 383 2.91
 229  0.083  0.437  0.453- 390 1.97 444 2.11 330 2.76 367 2.78 354 2.79 364 2.92
 230  0.084  0.187  0.453- 391 1.98 402 2.12 325 2.76 336 2.78 355 2.87 384 2.90
 231  0.917  0.812  0.454- 394 1.98 453 2.12 323 2.75 382 2.80 388 2.80 385 2.87
 232  0.083  0.312  0.361- 391 1.97 367 2.79 330 2.79
 233  0.916  0.562  0.454- 393 1.98 454 2.11 372 2.77 365 2.79 381 2.81 364 2.89
 234  0.916  0.062  0.454- 409 1.98 398 2.10 327 2.79 336 2.81 377 2.85 383 2.89
 235  0.916  0.312  0.454- 408 1.98 399 2.09 386 2.79 326 2.79 330 2.81 384 2.90
 236  0.417  0.187  0.454- 413 1.98 449 2.07 319 2.78 379 2.80 387 2.81 362 2.88
 237  0.252  0.687  0.456- 446 1.98 422 2.03 360 2.75 380 2.79 350 2.87 368 2.90
 238  0.916  0.937  0.454- 409 1.98 453 2.11 382 2.78 388 2.79 377 2.88 383 2.90
 239  0.583  0.190  0.455- 412 1.98 395 2.09 387 2.71 358 2.76 319 2.84 375 2.86
 240  0.000  0.125  0.498- 398 1.96 402 1.98 336 2.74 384 2.79 383 2.80
 241  0.584  0.810  0.455- 410 1.98 397 2.10 357 2.72 369 2.75 352 2.84 328 2.85
 242  1.000  0.373  0.498- 399 1.93 444 1.96 330 2.74 384 2.77 364 2.85
 243  1.000  0.627  0.498- 451 1.94 454 1.94 381 2.72 385 2.77 364 2.84
 244  0.334  0.126  0.499- 449 1.95 447 2.01 362 2.74 379 2.75 361 2.79 321 3.45
 245  0.000  0.875  0.500- 452 1.97 453 1.97 388 2.78 385 2.78 383 2.80
 246  0.333  0.874  0.499- 423 1.97 416 2.00 360 2.74 376 2.77 361 2.85 348 3.11
 247  0.666  0.127  0.499- 395 1.97 459 2.01 358 2.71 375 2.77 370 2.83 333 3.26
 248  0.251  0.439  0.455- 415 1.98 445 2.06 363 2.70 378 2.81 367 2.85 354 2.85
 249  0.083  0.563  0.361- 390 1.97 381 2.79 350 2.79
 250  0.770  0.107  0.750-  51 1.14
 251  0.917  0.063  0.361- 409 1.97 336 2.79 327 2.79
 252  0.749  0.813  0.453- 418 1.98 448 2.09 352 2.76 382 2.79 357 2.82 323 2.88
 253  0.251  0.062  0.454- 417 1.98 447 2.10 379 2.80 325 2.82 361 2.84 356 2.88
 254  0.915  0.313  0.547- 399 1.85 455 2.21 386 2.71 384 2.75 317 2.83 339 3.34
 255  0.252  0.314  0.454- 445 1.96 404 2.01 378 2.74 362 2.77 367 2.82 355 2.96
 256  0.252  0.565  0.454- 446 1.99 415 2.01 380 2.74 363 2.76 350 2.81 354 2.93
 257  0.251  0.811  0.455- 422 1.99 416 2.07 360 2.75 368 2.82 376 2.83 334 2.85
 258  0.833  0.250  0.407- 419 1.97 408 1.97 326 2.79 327 2.79 386 2.87
 259  0.584  0.315  0.454- 400 1.94 412 2.02 374 2.75 351 2.78 358 2.86 387 2.87
 260  0.833  0.000  0.407- 420 1.97 409 1.97 327 2.79 382 2.79 377 2.98
 261  0.500  0.500  0.407- 411 1.97 405 1.97 324 2.79 351 2.79 371 2.80
 262  0.083  0.188  0.361- 391 1.97 336 2.79 325 2.79
 263  0.000  0.000  0.407- 409 1.97 392 1.97 336 2.79 388 2.79 383 2.99
 264  0.000  0.250  0.407- 408 1.97 391 1.97 330 2.79 336 2.79 384 2.97
 265  0.000  0.500  0.407- 393 1.97 390 1.97 330 2.79 381 2.79 364 3.00
 266  0.748  0.564  0.454- 396 1.99 406 2.01 373 2.74 359 2.76 365 2.80 372 2.93
 267  0.333  0.000  0.407- 403 1.97 417 1.97 379 2.79 376 2.79 361 2.97
 268  0.333  0.500  0.407- 405 1.97 415 1.97 378 2.79 380 2.79 363 2.82
 269  0.333  0.750  0.407- 421 1.97 422 1.97 376 2.79 380 2.79 360 2.84
 270  0.667  0.000  0.407- 420 1.97 414 1.97 375 2.79 352 2.79 370 2.95
 271  0.667  0.250  0.407- 419 1.97 412 1.97 374 2.79 375 2.79 358 2.86
 272  0.667  0.500  0.407- 406 1.97 411 1.97 373 2.79 374 2.79 359 2.81
 273  0.667  0.750  0.407- 418 1.97 410 1.97 352 2.79 373 2.79 357 2.86
 274  0.167  0.000  0.407- 417 1.97 392 1.97 325 2.79 334 2.79 356 2.99
 275  0.167  0.250  0.407- 404 1.97 391 1.97 367 2.79 325 2.79 355 2.97
 276  0.167  0.500  0.407- 415 1.97 390 1.97 350 2.79 367 2.79 354 2.85
 277  0.167  0.750  0.407- 422 1.97 389 1.97 334 2.79 350 2.79 368 2.89
 278  0.500  0.000  0.407- 414 1.97 403 1.97 319 2.79 328 2.79 353 2.96
 279  0.500  0.250  0.407- 412 1.97 413 1.97 351 2.79 319 2.79 387 2.85
 280  0.500  0.750  0.407- 410 1.97 421 1.97 328 2.79 324 2.79 369 2.91
 281  0.917  0.312  0.361- 408 1.97 330 2.79 326 2.79
 282  0.333  0.250  0.407- 413 1.97 404 1.97 378 2.79 379 2.79 362 2.88
 283  0.747  0.314  0.455- 425 1.98 419 2.03 374 2.75 358 2.80 326 2.84 386 2.93
 284  0.000  0.750  0.407- 394 1.97 389 1.97 388 2.79 381 2.79 385 2.99
 285  0.417  0.810  0.455- 421 1.97 423 2.09 360 2.74 369 2.79 376 2.84 328 2.85
 286  0.583  0.563  0.361- 411 1.97 324 2.79 373 2.79
 287  0.749  0.064  0.453- 459 1.99 420 2.00 375 2.76 327 2.78 370 2.90 377 2.93
 288  0.583  0.812  0.361- 410 1.97 328 2.79 352 2.79
 289  0.583  0.312  0.361- 412 1.97 351 2.79 374 2.79
 290  0.583  0.063  0.361- 414 1.97 319 2.79 375 2.79
 291  0.250  0.812  0.361- 422 1.97 334 2.79 376 2.79
 292  0.250  0.563  0.361- 415 1.97 350 2.79 380 2.79
 293  0.250  0.312  0.361- 404 1.97 367 2.79 378 2.79
 294  0.250  0.063  0.361- 417 1.97 325 2.79 379 2.79
 295  0.750  0.563  0.361- 406 1.97 373 2.79 365 2.79
 296  0.750  0.312  0.361- 419 1.97 374 2.79 326 2.79
 297  0.750  0.063  0.361- 420 1.97 375 2.79 327 2.79
 298  0.417  0.812  0.361- 421 1.97 376 2.79 328 2.79
 299  0.417  0.563  0.361- 405 1.97 380 2.79 324 2.79
 300  0.417  0.312  0.361- 413 1.97 378 2.79 351 2.79
 301  0.750  0.812  0.361- 418 1.97 352 2.79 382 2.79
 302  0.084  0.312  0.454- 391 1.98 444 2.10 367 2.80 330 2.80 384 2.86 355 2.88
 303  0.417  0.063  0.361- 403 1.97 379 2.79 319 2.79
 304  0.417  0.062  0.455- 449 1.96 403 2.00 319 2.82 379 2.83 361 2.84 353 2.84
 305  0.083  0.812  0.454- 389 1.98 452 2.11 368 2.77 334 2.80 388 2.81 385 2.87
 306  0.084  0.562  0.454- 390 1.98 451 2.11 354 2.75 350 2.79 381 2.81 364 2.90
 307  0.416  0.560  0.458- 450 1.97 405 2.02 371 2.73 363 2.74 380 2.88 324 2.90
 308  0.084  0.062  0.454- 392 1.98 402 2.11 325 2.80 336 2.81 356 2.84 383 2.88
 309  0.416  0.311  0.457- 424 1.91 413 2.04 387 2.81 362 2.82 378 2.84 351 2.88
 310  0.833  0.750  0.407- 418 1.97 394 1.97 382 2.79 365 2.79 323 2.87
 311  0.083  0.437  0.361- 390 1.97 367 2.79 330 2.79
 312  0.083  0.687  0.361- 389 1.97 381 2.79 350 2.79
 313  0.083  0.938  0.361- 392 1.97 388 2.79 334 2.79
 314  0.417  0.188  0.361- 413 1.97 379 2.79 319 2.79
 315  0.083  0.812  0.361- 389 1.97 388 2.79 334 2.79
 316  0.833  0.500  0.407- 406 1.97 393 1.97 326 2.79 365 2.79 372 2.87
 317  0.838  0.373  0.603- 138 2.52 159 2.52 153 2.61 126 2.77 148 2.81 254 2.83  75 2.91  86 2.93
                           147 2.94  61 3.02 174 3.10 455 3.38 407 3.42 432 3.44 427 3.49 399 3.49
 318  0.832  0.876  0.618- 140 2.47 117 2.49 160 2.50 125 2.69 149 2.90 118 2.91  84 3.15  81 3.23
                            71 3.24  55 3.31 439 3.44 441 3.44 426 3.45 457 3.47 453 3.90 448 3.95
 319  0.500  0.125  0.407- 236 2.78  96 2.78 193 2.78 290 2.79 200 2.79 303 2.79 314 2.79 278 2.79
                           279 2.79 304 2.82 239 2.84 414 3.42 412 3.42 403 3.42 413 3.42 449 3.50
 320  0.999  0.875  0.622- 136 2.49 140 2.50 160 2.51 145 2.53  99 2.86 101 2.90  81 3.30  71 3.32
                            67 3.33  82 3.35 457 3.40 458 3.42 439 3.45 460 3.45 346 3.95 318 3.96
 321  0.332  0.120  0.613- 167 2.49 120 2.51 151 2.52 134 2.67 100 2.76  53 3.03 114 3.07  66 3.07
                           173 3.14  92 3.25 433 3.36 430 3.36 431 3.44 244 3.45 429 3.54 447 3.75
 322  0.840  0.627  0.603- 139 2.50 158 2.53 124 2.61 149 2.79 147 2.81  72 2.82  85 2.83  79 2.86
                           165 2.99 172 3.10  54 3.23 457 3.34 407 3.38 427 3.42 454 3.45 426 3.52
 323  0.836  0.752  0.503-  72 2.63  81 2.68 149 2.71 116 2.74  55 2.75 231 2.75 214 2.80 221 2.84
                           310 2.87 172 2.88 252 2.88  85 2.97 426 3.31 453 3.37 454 3.43 394 3.45
 324  0.500  0.625  0.407- 225 2.77 188 2.78 286 2.79 198 2.79 299 2.79 210 2.79 261 2.79 280 2.79
                           171 2.79 192 2.83 307 2.90 411 3.42 410 3.42 405 3.42 421 3.42 450 3.44
 325  0.167  0.125  0.407- 230 2.76 184 2.77 294 2.79 204 2.79 213 2.79 262 2.79 274 2.79 275 2.79
                           308 2.80 219 2.81 253 2.82 417 3.42 404 3.42 392 3.42 391 3.42 447 3.57
 326  0.833  0.375  0.407- 185 2.77 174 2.78 207 2.79 296 2.79 195 2.79 281 2.79 258 2.79 316 2.79
                           235 2.79 283 2.84 222 2.85 406 3.42 419 3.42 408 3.42 393 3.42 425 3.43
 327  0.833  0.125  0.407- 186 2.76 287 2.78 297 2.79 208 2.79 251 2.79 196 2.79 260 2.79 258 2.79
                           175 2.79 234 2.79 223 2.84 420 3.42 419 3.42 409 3.42 408 3.42 459 3.51
 328  0.500  0.875  0.407- 224 2.77 187 2.79 288 2.79 298 2.79 197 2.79 209 2.79 280 2.79 278 2.79
                           170 2.81 285 2.85 241 2.85 410 3.42 421 3.42 414 3.42 403 3.42 423 3.51
 329  0.334  0.624  0.595- 164 2.55 104 2.61 155 2.62  80 2.71  83 2.73 217 2.73 123 2.80 103 2.85
                            63 2.87  88 2.94 142 3.02 456 3.37 428 3.41 450 3.44 446 3.45 435 3.50
 330  0.000  0.375  0.407- 242 2.74 229 2.76 195 2.79 281 2.79 311 2.79 232 2.79 264 2.79 265 2.79
                           185 2.80 302 2.80 235 2.81 393 3.42 408 3.42 390 3.42 391 3.42 399 3.53
 331  0.326  0.374  0.593- 135 2.59 112 2.65  56 2.65 181 2.66 114 2.67 216 2.70  64 2.73 103 2.75
                           141 2.92  87 3.12 445 3.29  11 3.38 431 3.40 436 3.41 456 3.42 121 3.44
 332  0.501  0.877  0.609- 150 2.50 154 2.53 122 2.68 119 2.73 115 2.80 156 2.83  60 3.02  73 3.05
                            90 3.07  52 3.10 170 3.26 440 3.38 430 3.39 438 3.47 428 3.50 397 3.68
 333  0.665  0.124  0.608- 127 2.50 161 2.51 152 2.74 143 2.77 105 2.80 106 2.80  89 2.93  98 2.98
                            59 3.03 183 3.09 247 3.26 434 3.38 440 3.38 441 3.38 432 3.49 395 3.67
 334  0.167  0.875  0.407- 228 2.77 190 2.78 182 2.79 291 2.79 315 2.79 201 2.79 313 2.79 277 2.79
                           274 2.79 305 2.80 257 2.85 422 3.42 389 3.42 417 3.42 392 3.42 416 3.47
 335  0.504  0.625  0.594- 155 2.55 179 2.63  76 2.65  80 2.65  62 2.69  78 2.74  88 2.76 163 2.81
                           171 2.82 119 2.93 401 3.37 438 3.38 437 3.44 450 3.47  21 3.47 428 3.48
 336  0.000  0.125  0.407- 240 2.74 230 2.78 251 2.79 196 2.79 213 2.79 262 2.79 263 2.79 264 2.79
                           186 2.79 234 2.81 308 2.81 409 3.42 408 3.42 392 3.42 391 3.42 398 3.56
 337  0.834  0.124  0.615- 157 2.50 180 2.50 127 2.51 152 2.80 118 2.81 148 2.86  89 3.10 218 3.14
                            74 3.21 183 3.27 441 3.40 439 3.40 432 3.42 175 3.45 455 3.46 398 3.82
 338  1.000  0.622  0.636- 137 2.46 139 2.46 158 2.47 130 2.48  97 2.97  99 3.21 407 3.46 443 3.47
                           458 3.59 457 3.62 322 3.90 347 3.91 364 4.71 385 4.82
 339  1.000  0.375  0.623- 128 2.48 159 2.51 132 2.52 138 2.53 102 2.93  97 2.95 254 3.34  75 3.36
                            69 3.36  94 3.37 455 3.45 443 3.46 407 3.46 442 3.49 317 3.88 342 3.90
 340  0.666  0.627  0.593- 107 2.58 163 2.64  85 2.64 191 2.71 124 2.72 179 2.78  76 2.81  62 2.83
                            54 2.84 108 2.96 165 3.19 437 3.33 438 3.38 401 3.40 396 3.41  49 3.41
 341  0.665  0.881  0.607- 150 2.52 117 2.54 125 2.59 156 2.64 106 2.70  84 2.92  60 2.93  73 2.95
                            55 3.15 107 3.15 129 3.24 440 3.32 441 3.35 438 3.50 426 3.56 397 3.60
 342  0.163  0.371  0.608- 128 2.51 132 2.51 181 2.58 141 2.62 110 2.77  69 2.88 113 2.99 112 3.04
                            56 3.04  94 3.07 176 3.29 442 3.34 436 3.41 431 3.46 443 3.47 444 3.60
 343  0.168  0.123  0.622- 131 2.49 133 2.50 167 2.51 151 2.54 109 2.91 110 2.94  53 3.27  70 3.29
                           173 3.33  95 3.37 431 3.40 433 3.44 460 3.45 442 3.48 321 3.89 447 3.95
 344  0.500  0.122  0.606- 161 2.51 120 2.54 134 2.62 143 2.68 115 2.76  98 2.91  66 2.94  91 2.95
                            59 2.99  92 3.10  96 3.20 440 3.33 430 3.36 434 3.45 429 3.50 395 3.63
 345  0.501  0.371  0.595- 162 2.52 135 2.53  65 2.62  64 2.65  91 2.65  57 2.79 169 2.86 178 2.87
                            87 2.87 121 2.90  78 3.00 434 3.38 400 3.40 429 3.43 424 3.48 456 3.53
 346  0.166  0.873  0.618- 144 2.47 136 2.48 145 2.48 111 2.84 109 2.90 166 2.95  67 3.16  58 3.17
                            82 3.26  77 3.30 435 3.42 458 3.43 433 3.43 460 3.44 182 3.54 452 3.87
 347  0.159  0.627  0.601- 137 2.52 130 2.53 164 2.54 111 2.76  93 2.78 113 2.82  68 2.83  83 2.89
                           177 3.05 142 3.13  63 3.19 458 3.33 443 3.38 451 3.41 436 3.50 435 3.53
 348  0.335  0.879  0.603- 144 2.49 154 2.57 122 2.63 100 2.73 166 2.80  58 2.88  90 2.89  52 2.92
                            77 2.93 104 3.09 246 3.11 433 3.33 430 3.34 428 3.47 435 3.48 423 3.55
 349  0.670  0.372  0.593- 126 2.65  61 2.65 162 2.67 215 2.69 108 2.72  86 2.72 153 2.79 105 2.80
                            57 2.86  65 2.90 178 3.04 425 3.35 432 3.42 400 3.42 437 3.44 434 3.45
 350  0.167  0.625  0.407- 227 2.75 306 2.79 292 2.79 203 2.79 249 2.79 312 2.79 276 2.79 277 2.79
                           177 2.79 256 2.81 237 2.87 415 3.42 422 3.42 390 3.42 389 3.42 446 3.46
 351  0.500  0.375  0.407- 226 2.77 259 2.78 169 2.79 199 2.79 289 2.79 211 2.79 300 2.79 261 2.79
                           279 2.79 189 2.84 309 2.88 411 3.42 412 3.42 405 3.42 413 3.42 424 3.44
 352  0.667  0.875  0.407- 252 2.76 129 2.76 301 2.79 205 2.79 288 2.79 197 2.79 273 2.79 270 2.79
                           187 2.81 220 2.82 241 2.84 418 3.42 410 3.42 420 3.42 414 3.42 448 3.50
 353  0.500  0.999  0.506- 115 2.57  59 2.69  73 2.70  90 2.72  66 2.77 170 2.82  96 2.82 304 2.84
                           187 2.85 224 2.87 193 2.88 278 2.96 423 3.37 449 3.39 395 3.39 397 3.39
 354  0.163  0.500  0.502- 113 2.56  94 2.68  68 2.74 306 2.75 176 2.76 177 2.78  63 2.78 229 2.79
                           112 2.84 276 2.85 248 2.85 256 2.93 436 3.33 444 3.40 390 3.42 446 3.42
 355  0.166  0.248  0.506- 110 2.61  95 2.64  69 2.68 173 2.72  56 2.73 184 2.77 219 2.85 176 2.87
                           230 2.87 302 2.88 255 2.96 275 2.97 445 3.37 447 3.39 402 3.39 444 3.46
 356  0.166  0.001  0.507- 109 2.57  82 2.67  70 2.71  53 2.73  77 2.74 184 2.76 308 2.84 182 2.86
                           253 2.88 228 2.90 190 2.92 274 2.99 416 3.37 447 3.38 402 3.39 452 3.44
 357  0.665  0.752  0.502- 107 2.64  55 2.67 241 2.72 129 2.74  60 2.75 221 2.78 191 2.82 252 2.82
                           188 2.84  76 2.85 273 2.86  85 3.02 426 3.35 397 3.38 401 3.39 410 3.45
 358  0.667  0.248  0.502- 105 2.65 247 2.71  57 2.75  61 2.75 223 2.75 239 2.76 283 2.80  89 2.82
                            98 2.85 259 2.86 271 2.86 215 2.91 432 3.40 395 3.42 400 3.42 434 3.43
 359  0.668  0.500  0.501-  54 2.61 215 2.71 222 2.71 108 2.73 266 2.76 189 2.78 192 2.78 191 2.81
                           272 2.81  62 2.86  86 2.86  65 3.03 437 3.35 406 3.41 425 3.41 396 3.42
 360  0.334  0.751  0.502- 104 2.68  52 2.73 285 2.74 246 2.74 257 2.75 237 2.75  58 2.78 217 2.81
                           269 2.84 225 2.84  88 2.88  83 2.93 435 3.38 428 3.40 450 3.41 423 3.42
 361  0.333  0.001  0.506- 100 2.58  77 2.68  53 2.68  90 2.71  66 2.74 244 2.79 304 2.84 253 2.84
                           246 2.85 190 2.89 224 2.91 267 2.97 449 3.33 416 3.38 447 3.40 423 3.41
 362  0.330  0.248  0.503- 173 2.64 114 2.71  92 2.72  56 2.73 244 2.74 219 2.74 255 2.77 309 2.82
                           282 2.88 236 2.88 216 2.91  64 2.99 429 3.33 447 3.36 445 3.42 404 3.44
 363  0.331  0.499  0.501-  63 2.63 216 2.70 248 2.70 103 2.70 307 2.74 256 2.76 112 2.81 217 2.81
                           268 2.82  87 2.84 226 2.85  80 3.05 456 3.35 415 3.41 446 3.42 424 3.44
 364  1.000  0.501  0.507-  97 2.62  94 2.66  79 2.69  68 2.69  75 2.70 243 2.84 242 2.85 233 2.89
                           306 2.90 185 2.92 229 2.92 265 3.00 454 3.39 451 3.40 399 3.41 444 3.42
 365  0.833  0.625  0.407- 214 2.75 233 2.79 295 2.79 206 2.79 168 2.79 194 2.79 316 2.79 310 2.79
                           172 2.79 266 2.80 221 2.88 406 3.42 418 3.42 393 3.42 394 3.42 396 3.44
 366  0.001  0.123  0.620- 133 2.50 157 2.50 131 2.51 180 2.52 101 2.87 102 2.96  70 3.19 218 3.21
                            95 3.31  74 3.33 439 3.42 460 3.43 455 3.44 442 3.45 402 3.91 398 3.92
 367  0.167  0.375  0.407- 176 2.73 229 2.78 212 2.79 311 2.79 293 2.79 232 2.79 275 2.79 276 2.79
                           302 2.80 255 2.82 248 2.85 404 3.42 415 3.42 390 3.42 391 3.42 445 3.44
 368  0.164  0.752  0.503-  93 2.62  67 2.67 182 2.72 111 2.76 305 2.77 227 2.82 257 2.82 177 2.84
                            58 2.89 277 2.89 237 2.90  83 2.92 435 3.34 452 3.37 451 3.43 446 3.46
 369  0.501  0.753  0.504-  88 2.67 119 2.67 170 2.69  76 2.71 241 2.75  52 2.77 285 2.79  60 2.81
                           188 2.86 280 2.91 225 2.91 171 2.95 397 3.37 428 3.38 423 3.41 401 3.42
 370  0.666  1.000  0.505- 106 2.59 183 2.64  73 2.68  59 2.69  84 2.77 129 2.80 247 2.83 220 2.84
                           187 2.86 193 2.87 287 2.90 270 2.95 448 3.37 397 3.38 395 3.38 459 3.38
 371  0.501  0.500  0.500-  87 2.61 189 2.70 171 2.70 307 2.73  62 2.75  65 2.77 192 2.77 261 2.80
                           169 2.80 226 2.83  80 2.92  78 3.26 411 3.41 400 3.43 405 3.44 450 3.45
 372  0.836  0.500  0.503- 147 2.58  75 2.68  79 2.72 172 2.75 233 2.77 185 2.77  54 2.78 174 2.84
                            86 2.84 222 2.84 316 2.87 266 2.93 427 3.34 425 3.41 454 3.41 399 3.42
 373  0.667  0.625  0.407- 266 2.74 295 2.79 206 2.79 286 2.79 198 2.79 272 2.79 273 2.79 192 2.79
                           188 2.80 221 2.85 191 2.88 406 3.42 418 3.42 411 3.42 410 3.42 401 3.43
 374  0.667  0.375  0.407- 283 2.75 259 2.75 207 2.79 296 2.79 199 2.79 289 2.79 272 2.79 271 2.79
                           222 2.83 189 2.86 215 2.89 406 3.42 419 3.42 412 3.42 411 3.42 400 3.46
 375  0.667  0.125  0.407- 287 2.76 247 2.77 193 2.79 297 2.79 208 2.79 290 2.79 200 2.79 270 2.79
                           271 2.79 239 2.86 223 2.86 420 3.42 419 3.42 414 3.42 412 3.42 395 3.52
 376  0.333  0.875  0.407- 246 2.77 190 2.78 224 2.79 298 2.79 291 2.79 209 2.79 201 2.79 269 2.79
                           267 2.79 257 2.83 285 2.84 421 3.42 422 3.42 403 3.42 417 3.42 416 3.49
 377  0.834  0.000  0.506- 118 2.57  71 2.65 183 2.69 218 2.72 175 2.78  84 2.78 116 2.81 234 2.85
                           238 2.88 220 2.88 287 2.93 260 2.98 448 3.36 459 3.36 453 3.40 398 3.41
 378  0.333  0.375  0.407- 255 2.74 226 2.77 211 2.79 300 2.79 212 2.79 293 2.79 268 2.79 282 2.79
                           248 2.81 309 2.84 216 2.88 405 3.42 413 3.42 404 3.42 415 3.42 424 3.43
 379  0.333  0.125  0.407- 244 2.75 303 2.79 314 2.79 294 2.79 204 2.79 267 2.79 282 2.79 236 2.80
                           253 2.80 219 2.81 304 2.83 403 3.42 413 3.42 417 3.42 404 3.42 449 3.47
 380  0.333  0.625  0.407- 256 2.74 225 2.78 299 2.79 210 2.79 292 2.79 203 2.79 268 2.79 269 2.79
                           237 2.79 307 2.88 217 2.92 405 3.42 421 3.42 415 3.42 422 3.42 450 3.45
 381  0.000  0.625  0.407- 243 2.72 168 2.79 194 2.79 249 2.79 312 2.79 265 2.79 284 2.79 227 2.80
                           214 2.80 233 2.81 306 2.81 393 3.42 394 3.42 390 3.42 389 3.42 451 3.53
 382  0.833  0.875  0.407- 116 2.75 238 2.78 252 2.79 301 2.79 205 2.79 146 2.79 202 2.79 310 2.79
                           260 2.79 231 2.80 220 2.84 418 3.42 394 3.42 420 3.42 409 3.42 448 3.48
 383  0.000  0.000  0.507- 101 2.60  82 2.67  71 2.70  70 2.70 218 2.70 245 2.80 240 2.80 308 2.88
                           234 2.89 238 2.90 228 2.91 263 2.99 453 3.40 398 3.40 452 3.41 402 3.41
 384  0.001  0.250  0.506- 102 2.58  95 2.67  74 2.69 254 2.75  69 2.76 242 2.77 240 2.79 302 2.86
                           235 2.90 230 2.90 186 2.92 264 2.97 444 3.39 399 3.39 402 3.40 398 3.41
 385  1.000  0.751  0.507-  99 2.57  81 2.72  72 2.72  93 2.72  67 2.73 243 2.77 245 2.78 231 2.87
                           305 2.87 214 2.94 227 2.94 284 2.99 451 3.39 454 3.39 452 3.40 453 3.40
 386  0.836  0.249  0.503- 148 2.65  74 2.66 254 2.71 186 2.77 175 2.77 174 2.78 223 2.79 235 2.79
                            61 2.85 258 2.87  89 2.92 283 2.93 432 3.33 398 3.37 399 3.43 408 3.45
 387  0.501  0.248  0.502-  91 2.65 239 2.71  92 2.73  57 2.73  96 2.73  98 2.76 236 2.81 309 2.81
                           169 2.82 279 2.85 259 2.87  64 2.98 429 3.37 395 3.40 400 3.42 434 3.45
 388  0.000  0.875  0.407- 245 2.78 228 2.79 146 2.79 315 2.79 202 2.79 313 2.79 284 2.79 263 2.79
                           238 2.79 231 2.80 305 2.81 394 3.42 389 3.42 409 3.42 392 3.42 452 3.58
 389  0.083  0.750  0.407- 227 1.97 315 1.97 312 1.97 277 1.97 284 1.97 305 1.98 334 3.42 388 3.42
                           381 3.42 350 3.42 368 3.47 385 3.58
 390  0.083  0.500  0.407- 229 1.97 249 1.97 311 1.97 276 1.97 265 1.97 306 1.98 330 3.42 350 3.42
                           367 3.42 381 3.42 354 3.42 364 3.60
 391  0.083  0.250  0.407- 232 1.97 262 1.97 264 1.97 275 1.97 302 1.98 230 1.98 330 3.42 367 3.42
                           336 3.42 325 3.42 384 3.55 355 3.56
 392  0.083  0.000  0.407- 313 1.97 213 1.97 274 1.97 263 1.97 308 1.98 228 1.99 325 3.42 336 3.42
                           334 3.42 388 3.42 356 3.57 383 3.58
 393  0.917  0.500  0.407- 168 1.97 195 1.97 265 1.97 316 1.97 233 1.98 185 1.98 330 3.42 381 3.42
                           365 3.42 326 3.42 372 3.44 364 3.59
 394  0.917  0.750  0.407- 146 1.97 194 1.97 284 1.97 310 1.97 214 1.98 231 1.98 388 3.42 381 3.42
                           382 3.42 365 3.42 323 3.45 385 3.58
 395  0.583  0.123  0.504-  59 1.84  98 1.95 247 1.97  96 1.99 193 2.01 239 2.09 370 3.38 353 3.39
                           387 3.40 358 3.42 319 3.52 375 3.52 344 3.63 333 3.67
 396  0.752  0.625  0.502- 172 1.89 221 1.96  85 1.96  54 1.97 266 1.99 191 2.06 340 3.41 372 3.42
                           359 3.42 365 3.44 323 3.46 357 3.51 373 3.51 322 3.67
 397  0.584  0.876  0.506-  73 1.84  60 1.92 129 1.97 170 1.99 187 2.06 241 2.10 369 3.37 357 3.38
                           370 3.38 353 3.39 352 3.55 328 3.56 341 3.60 332 3.68
 398  0.918  0.125  0.506-  74 1.85 218 1.85 240 1.96 175 2.02 234 2.10 186 2.11 386 3.37 383 3.40
                           384 3.41 377 3.41 336 3.56 327 3.59 337 3.82 366 3.92
 399  0.919  0.375  0.506- 254 1.85  75 1.85 242 1.93 174 2.05 235 2.09 185 2.10 384 3.39 364 3.41
                           372 3.42 386 3.43 317 3.49 330 3.53 326 3.59 339 4.01
 400  0.583  0.373  0.502-  57 1.91 259 1.94 215 1.94 169 1.99 189 2.00  65 2.06 345 3.40 387 3.42
                           349 3.42 358 3.42 371 3.43 374 3.46 351 3.46 359 3.47
 401  0.584  0.627  0.501- 188 1.90  76 1.92 191 1.93 171 1.98 192 1.99  62 2.10 335 3.37 357 3.39
                           340 3.40 369 3.42 373 3.43 324 3.44 371 3.45 359 3.48
 402  0.083  0.125  0.507-  70 1.84  95 1.85 240 1.98 184 2.00 308 2.11 230 2.12 356 3.39 355 3.39
                           384 3.40 383 3.41 336 3.58 325 3.59 366 3.91 343 3.99
 403  0.417  0.000  0.407- 209 1.97 303 1.97 267 1.97 278 1.97 304 2.00 224 2.01 379 3.42 376 3.42
                           319 3.42 328 3.42 353 3.56 361 3.56
 404  0.250  0.250  0.407- 219 1.97 293 1.97 204 1.97 275 1.97 282 1.97 255 2.01 367 3.42 325 3.42
                           378 3.42 379 3.42 362 3.44 355 3.57
 405  0.417  0.500  0.407- 299 1.97 211 1.97 268 1.97 261 1.97 226 2.01 307 2.02 378 3.42 380 3.42
                           324 3.42 351 3.42 371 3.44 363 3.47
 406  0.750  0.500  0.407- 295 1.97 207 1.97 272 1.97 316 1.97 266 2.01 222 2.01 359 3.41 373 3.42
                           374 3.42 326 3.42 365 3.42 372 3.53
 407  0.918  0.500  0.604- 158 1.79 138 1.80  97 1.95 147 2.06  79 2.22  75 2.24 322 3.38 317 3.42
                           339 3.46 338 3.46 364 3.49 372 3.60
 408  0.917  0.250  0.407- 281 1.97 196 1.97 264 1.97 258 1.97 235 1.98 186 1.98 330 3.42 336 3.42
                           326 3.42 327 3.42 386 3.45 384 3.57
 409  0.917  0.000  0.407- 202 1.97 251 1.97 263 1.97 260 1.97 238 1.98 234 1.98 336 3.42 388 3.42
                           327 3.42 382 3.42 377 3.56 383 3.58
 410  0.583  0.750  0.407- 288 1.97 198 1.97 280 1.97 273 1.97 241 1.98 188 2.02 328 3.42 352 3.42
                           324 3.42 373 3.42 357 3.45 369 3.50
 411  0.583  0.500  0.407- 286 1.97 199 1.97 261 1.97 272 1.97 192 2.01 189 2.01 371 3.41 351 3.42
                           324 3.42 373 3.42 374 3.42 359 3.46
 412  0.583  0.250  0.407- 289 1.97 200 1.97 279 1.97 271 1.97 239 1.98 259 2.02 351 3.42 319 3.42
                           374 3.42 375 3.42 387 3.46 358 3.48
 413  0.417  0.250  0.407- 300 1.97 314 1.97 282 1.97 279 1.97 236 1.98 309 2.04 378 3.42 379 3.42
                           351 3.42 319 3.42 387 3.48 362 3.53
 414  0.583  0.000  0.407- 197 1.97 290 1.97 278 1.97 270 1.97 187 2.00 193 2.00 319 3.42 375 3.42
                           328 3.42 352 3.42 370 3.54 353 3.55
 415  0.250  0.500  0.407- 292 1.97 212 1.97 276 1.97 268 1.97 248 1.98 256 2.01 363 3.41 350 3.42
                           367 3.42 378 3.42 380 3.42 354 3.51
 416  0.249  0.879  0.503-  77 1.83 182 1.93 190 1.93 246 2.00 257 2.07  58 2.08 356 3.37 361 3.38
                           334 3.47 368 3.47 360 3.48 376 3.49 348 3.63 346 3.98
 417  0.250  0.000  0.407- 201 1.97 294 1.97 274 1.97 267 1.97 253 1.98 190 2.01 325 3.42 379 3.42
                           334 3.42 376 3.42 361 3.56 356 3.59
 418  0.750  0.750  0.407- 301 1.97 206 1.97 273 1.97 310 1.97 252 1.98 221 2.04 352 3.42 382 3.42
                           373 3.42 365 3.42 357 3.49 323 3.52
 419  0.750  0.250  0.407- 296 1.97 208 1.97 271 1.97 258 1.97 223 1.99 283 2.03 374 3.42 375 3.42
                           326 3.42 327 3.42 358 3.48 386 3.52
 420  0.750  0.000  0.407- 205 1.97 297 1.97 270 1.97 260 1.97 287 2.00 220 2.00 375 3.42 327 3.42
                           352 3.42 382 3.42 370 3.56 377 3.59
 421  0.417  0.750  0.407- 285 1.97 298 1.97 210 1.97 269 1.97 280 1.97 225 2.04 376 3.42 380 3.42
                           328 3.42 324 3.42 360 3.45 369 3.53
 422  0.250  0.750  0.407- 291 1.97 203 1.97 277 1.97 269 1.97 257 1.99 237 2.03 334 3.42 376 3.42
                           350 3.42 380 3.42 360 3.46 368 3.53
 423  0.417  0.877  0.504-  90 1.85  52 1.97 246 1.97 170 1.98 224 1.99 285 2.09 353 3.37 361 3.41
                           369 3.41 360 3.42 376 3.51 328 3.51 348 3.55 332 3.74
 424  0.416  0.374  0.501- 309 1.91 216 1.94 226 1.96  64 1.98 169 1.98  87 2.07 378 3.43 363 3.44
                           351 3.44 371 3.45 387 3.46 362 3.47 345 3.48 331 3.49
 425  0.753  0.376  0.502- 174 1.89  86 1.94 222 1.97 283 1.98  61 2.00 215 2.06 349 3.35 372 3.41
                           359 3.41 326 3.43 386 3.45 374 3.50 358 3.50 317 3.64
 426  0.752  0.753  0.591-  55 1.83 149 1.87  85 1.97 125 1.98 107 2.04 165 2.39   2 3.13 323 3.31
                           357 3.35 318 3.45 340 3.47 322 3.52 341 3.56
 427  0.757  0.503  0.595- 147 1.83 124 1.92  54 1.95 153 2.01  86 2.04 108 2.13 372 3.34 322 3.42
                           317 3.49 340 3.49 359 3.51 349 3.55
 428  0.416  0.750  0.594- 104 1.91 122 1.95  52 1.95  88 2.00 119 2.03 155 2.04 369 3.38 360 3.40
                           329 3.41 348 3.47 335 3.48 332 3.50
 429  0.415  0.249  0.591-  92 1.85 114 1.89  64 1.97 134 1.99  91 2.00 121 2.32 362 3.33 387 3.37
                           345 3.43 331 3.50 344 3.50 321 3.54
 430  0.417  0.000  0.605- 154 1.79 120 1.80 115 2.00 100 2.00  90 2.25  66 2.25 348 3.34 344 3.36
                           321 3.36 332 3.39 353 3.57 361 3.57
 431  0.249  0.246  0.604- 151 1.74 110 1.93 181 1.94 114 2.07 173 2.13  56 2.30 343 3.40 331 3.40
                           321 3.44 342 3.46 355 3.52 362 3.58
 432  0.754  0.248  0.593- 148 1.84  89 1.91  61 1.95 152 2.02 126 2.04 105 2.14  30 3.07 386 3.33
                           358 3.40 349 3.42 337 3.42 317 3.44 333 3.49
[...]
  350              map_forward                          14.795813                   4370   6
  351                map_gather                            0.359865                 2206   7
  352                m_alltoallv_z                        11.877256                 2206   7
  353                map_scatter                           2.512426                 2206   7
  354              map_backward                         15.192178                   4328   6
  355                map_gather                            1.639562                 2164   7
  356                m_alltoallv_z                        12.935924                 2164   7
  357                map_scatter                           0.574061                 2164   7
  358        ggaall_grid                          29.904039                          373   3
  359        m_sumb_d                              0.600713                         1928   3
  360        fewald                                0.029868                           42   3
  361          rsp                                   0.027443                         42   4
  362          rcp                                   0.002003                         42   4
  363        pothar                                0.040515                           21   3
  364          m_sumb_d                              0.028251                         21   4
  365        m_bcast_d                             0.077973                           21   3
  366      potlok_metagga                        0.000100                             21   2
  367      set_dd_magatom                        0.000011                             11   2
  368      set_dd_paw                            0.259187                             21   2
  369        set_rsgf_all                          0.000041                           21   3
  370        m_sumb_d                              0.252922                          147   3
  371      m_bcast_d                             0.003407                             22   2
  372      wavpre_noio                           2.729404                             10   2
  373        stufak                                2.596220                           10   3
  374      eddiag                              319.466207                             10   2
  375        overl                                 0.013152                           10   3
  376        redis_proj                            1.793976                           30   3
  377          m_alltoall_d                          1.782107                       4200   4
  378        fftwav_mpi                            9.689193                         1400   3
  379          fft3d_mpi                             8.222467                       1400   4
  380            fftbrc_mpi                            5.913963                     1400   5
  381              fftbas_plan_mpi                       5.908623                   1400   6
  382                dfftw_execute                         2.775537                 4200   7
  383                map_forward                           2.296829                 2800   7
  384                  map_gather                            0.240855               1400   8
  385                  m_alltoallv_z                         0.711352               1400   8
  386                  map_scatter                           0.413077               1400   8
  387        hamilt_local                          6.669650                         1400   3
  388          vhamil                                1.791439                       1400   4
  389          kinhamil                              4.864366                       1400   4
  390            fftext_mpi                            4.778134                     1400   5
  391              fft3d_mpi                             4.633411                   1400   6
  392                fftbrc_mpi                            3.855949                 1400   7
  393                  fftbas_plan_mpi                       3.851460               1400   8
  394                    dfftw_execute                         1.955386             4200   9
  395                    map_backward                          1.093877             2800   9
  396                      map_gather                            0.258241           1400  10
  397                      m_alltoallv_z                         0.616919           1400  10
  398                      map_scatter                           0.194671           1400  10
  399        redis_pw                              2.728086                         1410   3
  400          m_alltoall_d                          2.618298                       4200   4
  401        orth1                                 3.737545                          700   3
  402        m_sumb_d                              2.014716                           10   3
  403        shift_bands_between_low_high          0.000018                           10   3
  404        lincom                                2.914562                           10   3
  405      set_charge                            8.974924                             10   2
  406        soft_charge                           8.407877                           10   3
  407          fftwav_mpi                            6.966755                       1180   4
  408            fft3d_mpi                             6.095063                     1180   5
  409              fftbrc_mpi                            4.618843                   1180   6
  410                fftbas_plan_mpi                       4.614661                 1180   7
  411                  dfftw_execute                         2.316840               3540   8
  412                  map_forward                           1.517444               2360   8
  413                    map_gather                            0.125293             1180   9
  414                    m_alltoallv_z                         0.527341             1180   9
  415                    map_scatter                           0.353971             1180   9
  416          pw_charge                             1.248859                       1180   4
  417          m_sumb_d                              0.089710                         10   4
  418          fft_gq                                0.062206                         10   4
  419            fft3d_mpi                             0.059573                       10   5
  420              fftbrc_mpi                            0.056430                     10   6
  421                fftbas_plan_mpi                       0.056395                   10   7
  422                  dfftw_execute                         0.008419                 30   8
  423                  map_backward                          0.041986                 20   8
  424                    map_gather                            0.009179               20   9
  425                    m_alltoallv_z                         0.030662               20   9
  426                    map_scatter                           0.001674               20   9
  427        depsum                                0.020331                           10   3
  428          m_sumb_d                              0.009268                         10   4
  429        augmentation_charge                   0.544359                           10   3
  430          m_sumb_d                              0.045362                         10   4
  431          fft3d_mpi                             0.116055                         10   4
  432            fftbrc_mpi                            0.113898                       10   5
  433              fftbas_plan_mpi                       0.113872                     10   6
  434                dfftw_execute                         0.012415                   30   7
  435                map_backward                          0.094025                   20   7
  436                  map_gather                            0.004695                 10   8
  437                  m_alltoallv_z                         0.085556                 10   8
  438                  map_scatter                           0.003446                 10   8
 
 Flat profile
 ============
 
             routine name                   CPU           calls
 ---------------------------------------------------------------
 edwav                               17095.373139        1071
 potlok                               1967.026408        1093
 dfftw_execute                        1055.334363     1860948
 lincom                                878.067475        3250
 m_alltoall_d                          873.399257     2589573
 orth1                                 758.592343      159647
 m_alltoallv_z                         748.472107      622491
 m_sumb_d                              712.951550     1088558
 fft3d_mpi                             592.974252      620316
 eddiag                                565.623415         558
 fftbas_plan_mpi                       386.736809      620316
 fftwav_mpi                            371.450649      379736
 choleski                              367.608094        1082
 eccp                                  310.433686      300160
 ggaall_grid                           238.387483        1456
 map_forward                           230.362422      843962
 total_time                            193.118319           1
 map_scatter                           189.825270      622491
 racc0                                 155.214358       77319
 pw_charge                             138.913900      127658
 eddav                                 132.323926           5
 map_gather                            120.772421      622491
 rpro1                                 120.643277       76619
 vhamil                                105.074412       80259
 w1_dscal                               77.110933       74760
 augmentation_charge                    42.030429        1082
 orthch                                 39.723952        1082
 setdij_                                39.604054        1380
 force_and_stress                       19.950711          11
 m_bcast_z                              19.122387        2380
 redis_pw                               16.726850      311686
 ggemm                                  13.694913        3259
 rpromu                                 13.673863        5005
 fftext_mpi                             12.256524      155019
 redis_proj                              7.784085      244991
 rpromu_gemm                             7.495275     1136135
 m_bcast_d                               5.183541        8814
 rspher_all                              5.145226         144
 overl                                   4.806020       81349
 forhar                                  4.467669          11
 forloc                                  4.451180          11
 soft_charge                             4.121847        1082
 elmin_all                               3.712010          11
 lapack                                  3.583720        2559
 map_backward                            3.535902      396670
 kinhamil                                3.293898       80259
 stufak                                  2.857069          11
 fftbrc_mpi                              2.101411      620316
 densta                                  2.043186        1093
 rsp                                     1.517599        2197
 depsum                                  1.193385        1082
 hamilt_local                            0.764375       77700
 pothar                                  0.609551        1093
 set_dd_paw                              0.596246        1104
 w1_copy                                 0.364265        7677
 fft_gq                                  0.361600        1082
 set_charge                              0.346110        1082
 strnlr                                  0.230979          11
 rpro_isp                                0.223253         143
 apply_precond                           0.158088        1859
 wavpre_noio                             0.133184          10
 fewald                                  0.131553        2197
 rcp                                     0.116286        2197
 overl1                                  0.094264        2559
 strehar                                 0.076035          11
 strkin                                  0.064794          11
 fornlr                                  0.062878          11
 setup_precond                           0.058095         700
 strelo                                  0.057139          11
 inisym                                  0.053473           1
 hamiltmu                                0.045535        2559
 raccmu_                                 0.034217        2559
 newband                                 0.031630        2564
 redis_pw_all                            0.013546        1071
 w1_projall                              0.011659        1859
 redis_pw_over_bands                     0.004234        1092
 truncate_high_frequency_w1              0.003256        3259
 fordep                                  0.002980          11
 potlok_metagga                          0.002600        1093
 set_rsgf_all                            0.002244        1104
 brgrid                                  0.000660           1
 phaser                                  0.000586         682
 posmap                                  0.000273           2
 crpa_reader                             0.000230           1
 proall                                  0.000144          11
 rotate_active_occupied_orbital          0.000078          11
 shift_bands_between_low_high            0.000033          21
 set_dd_magatom                          0.000032          22
 vectorpot                               0.000030           1
 ---------------------------------------------------------------
  summed up times    28674.5231029987     
 
 Accumulative profile
 ====================
 
             routine name                   CPU           calls
 ---------------------------------------------------------------
 total_time                          28674.523103           1
 elmin_all                           27798.049890          11
 edwav                               22828.951585        1071
 fft3d_mpi                            3330.114958      620316
 potlok                               2964.952694        1093
 fftbrc_mpi                           2737.140706      620316
 fftbas_plan_mpi                      2735.039295      620316
 fftwav_mpi                           2409.878742      379736
 orthch                               1293.455324        1082
 eddiag                               1165.378160         558
 dfftw_execute                        1055.334363     1860948
 set_charge                            971.015428        1082
 soft_charge                           908.223236        1082
 map_forward                           892.235592      843962
 lincom                                878.067475        3250
 m_alltoall_d                          873.399257     2589573
 orth1                                 758.592343      159647
 m_alltoallv_z                         748.472107      622491
 m_sumb_d                              712.951550     1088558
 fftext_mpi                            530.477208      155019
 redis_pw                              493.155594      311686
 redis_proj                            404.754598      244991
 map_backward                          400.732530      396670
 hamilt_local                          370.128093       77700
 choleski                              367.608094        1082
 eccp                                  330.127079      300160
 kinhamil                              276.406997       80259
 eddav                                 242.920247           5
 ggaall_grid                           238.387483        1456
 force_and_stress                      190.010474          11
 map_scatter                           189.825270      622491
 racc0                                 189.531502       77319
 rpro_isp                              146.462494         143
 pw_charge                             138.913900      127658
 rpro1                                 137.043889       76619
 map_gather                            120.772421      622491
 strnlr                                105.691854          11
 vhamil                                105.074412       80259
 w1_dscal                               77.110933       74760
 redis_pw_over_bands                    69.357042        1092
 redis_pw_all                           69.352808        1071
 augmentation_charge                    60.196751        1082
 setdij_                                52.023201        1380
 fornlr                                 35.335823          11
 rpromu                                 23.958428        5005
 m_bcast_z                              19.122387        2380
 hamiltmu                               17.689508        2559
 set_dd_paw                             14.278904        1104
 ggemm                                  13.694913        3259
 proall                                 11.334434          11
 densta                                  7.681256        1093
 rpromu_gemm                             7.495275     1136135
 fft_gq                                  6.772779        1082
 newband                                 5.937992        2564
 raccmu_                                 5.526283        2559
 m_bcast_d                               5.183541        8814
 rspher_all                              5.145226         144
 overl                                   4.806020       81349
 forhar                                  4.489057          11
 forloc                                  4.471338          11
 lapack                                  3.583720        2559
 w1_projall                              3.329575        1859
 stufak                                  2.857069          11
 wavpre_noio                             2.729404          10
 fordep                                  2.510841          11
 depsum                                  2.249332        1082
 fewald                                  2.094595        2197
 pothar                                  2.060702        1093
 rsp                                     1.517599        2197
 w1_copy                                 0.364265        7677
 apply_precond                           0.158088        1859
 rcp                                     0.116286        2197
 strehar                                 0.097648          11
 overl1                                  0.094264        2559
 strelo                                  0.084759          11
 strkin                                  0.083250          11
 setup_precond                           0.080995         700
 inisym                                  0.053746           1
 truncate_high_frequency_w1              0.003256        3259
 potlok_metagga                          0.002600        1093
 set_rsgf_all                            0.002244        1104
 brgrid                                  0.000660           1
 phaser                                  0.000586         682
 posmap                                  0.000273           2
 crpa_reader                             0.000230           1
 rotate_active_occupied_orbital          0.000078          11
 shift_bands_between_low_high            0.000033          21
 set_dd_magatom                          0.000032          22
 vectorpot                               0.000030           1
 ---------------------------------------------------------------
 
Profiling took  18.231090  5.606788  0.011451  0.010630 seconds
Profiling took  23.023187 seconds
