 vasp.6.3.2 27Jun22 (build Jan 03 2024 23:25:20) gamma-only                     
  
 executed on           IFC15_impi date 2024.06.04  04:40:04
 running  192 mpi-ranks, with    1 threads/rank
 distrk:  each k-point on  192 cores,    1 groups
 distr:  one band on NCORE=   4 cores,   48 groups


--------------------------------------------------------------------------------------------------------


 INCAR:
   ENCUT = 500.000000
   SIGMA = 0.010000
   EDIFF = 1.00e-05
   ALGO = A
   ISMEAR = 0
   NELM = 200
   NSW = 500
   NCORE = 4
   LCHARG = .FALSE.
   LWAVE = .FALSE.
   LREAL = Auto
   IBRION = 2
   EDIFFG = -0.05
   GGA = BF
   LUSE_VDW = .TRUE.
   ZAB_VDW = -1.8867
   LBEEFENS = .TRUE.

 POTCAR:    PAW_PBE C 08Apr2002                   
 POTCAR:    PAW_PBE H 15Jun2001                   
 -----------------------------------------------------------------------------
|                                                                             |
|               ----> ADVICE to this user running VASP <----                  |
|                                                                             |
|     You have switched on vdW-DFT.                                           |
|     This routine was written and supplied by Jiri Klimes. We recommend      |
|     that you carefully read and cite the following publications:            |
|       J. Klimes, D.R. Bowler, A. Michelides                                 |
|          J. Phys.: Cond Matt. 22 022201 (2010)                              |
|       J. Klimes, D.R. Bowler, A. Michelides                                 |
|          Phys. Rev. B. 83, 195131 (2011)                                    |
|     and references therein.                                                 |
|                                                                             |
 -----------------------------------------------------------------------------

 POTCAR:    PAW_PBE C 08Apr2002                   
   SHA256 =  253f7b50bb8d59471dbedb8285d89021f4a42ed1a2c5d38a03a736e69125dd95 C/POTCAR              
   COPYR  = (c) Copyright 08Apr2002 Georg Kresse                                                    
   COPYR  = This file is part of the software VASP. Any use, copying, and all other rights are regul
   COPYR  = If you do not have a valid VASP license, you may not use, copy or distribute this file. 
   VRHFIN =C: s2p2                                                                                  
   LEXCH  = PE                                                                                      
   EATOM  =   147.1560 eV,   10.8157 Ry                                                             
                                                                                                    
   TITEL  = PAW_PBE C 08Apr2002                                                                     
   LULTRA =        F    use ultrasoft PP ?                                                          
   IUNSCR =        1    unscreen: 0-lin 1-nonlin 2-no                                               
   RPACOR =    1.200    partial core radius                                                         
   POMASS =   12.011; ZVAL   =    4.000    mass and valenz                                          
   RCORE  =    1.500    outmost cutoff radius                                                       
   RWIGS  =    1.630; RWIGS  =    0.863    wigner-seitz radius (au A)                               
   ENMAX  =  400.000; ENMIN  =  300.000 eV                                                          
   ICORE  =        2    local potential                                                             
   LCOR   =        T    correct aug charges                                                         
   LPAW   =        T    paw PP                                                                      
   EAUG   =  644.873                                                                                
   DEXC   =    0.000                                                                                
   RMAX   =    1.529    core radius for proj-oper                                                   
   RAUG   =    1.300    factor for augmentation sphere                                              
   RDEP   =    1.501    radius for radial grids                                                     
   RDEPT  =    1.300    core radius for aug-charge                                                  
                                                                                                    
   Atomic configuration                                                                             
    4 entries                                                                                       
     n  l   j            E        occ.                                                              
     1  0  0.50      -273.3789   2.0000                                                             
     2  0  0.50       -13.7508   2.0000                                                             
     2  1  0.50        -5.2854   2.0000                                                             
     3  2  1.50        -5.4423   0.0000                                                             
   Description                                                                                      
     l       E           TYP  RCUT    TYP  RCUT                                                     
     0    -13.7508458     23  1.200                                                                 
     0     -8.2022199     23  1.200                                                                 
     1     -5.2854383     23  1.500                                                                 
     1     34.0145650     23  1.500                                                                 
     2     -5.4423304      7  1.500                                                                 
  local pseudopotential read in
  partial core-charges read in
  partial kinetic energy density read in
  atomic valenz-charges read in
  non local Contribution for L=           0  read in
    real space projection operators read in
  non local Contribution for L=           0  read in
    real space projection operators read in
  non local Contribution for L=           1  read in
    real space projection operators read in
  non local Contribution for L=           1  read in
    real space projection operators read in
    PAW grid and wavefunctions read in
 
   number of l-projection  operators is LMAX  =           4
   number of lm-projection operators is LMMAX =           8
 
 POTCAR:    PAW_PBE H 15Jun2001                   
   SHA256 =  030f79b5d3ab3cf0e668861823c8fb652ff669f3e15e46930bd03bfd63a607b6 H/POTCAR              
   COPYR  = (c) Copyright 15Jun2001 Georg Kresse                                                    
   COPYR  = This file is part of the software VASP. Any use, copying, and all other rights are regul
   COPYR  = If you do not have a valid VASP license, you may not use, copy or distribute this file. 
   VRHFIN =H: ultrasoft test                                                                        
   LEXCH  = PE                                                                                      
   EATOM  =    12.4884 eV,    0.9179 Ry                                                             
                                                                                                    
   TITEL  = PAW_PBE H 15Jun2001                                                                     
   LULTRA =        F    use ultrasoft PP ?                                                          
   IUNSCR =        0    unscreen: 0-lin 1-nonlin 2-no                                               
   RPACOR =    0.000    partial core radius                                                         
   POMASS =    1.000; ZVAL   =    1.000    mass and valenz                                          
   RCORE  =    1.100    outmost cutoff radius                                                       
   RWIGS  =    0.700; RWIGS  =    0.370    wigner-seitz radius (au A)                               
   ENMAX  =  250.000; ENMIN  =  200.000 eV                                                          
   RCLOC  =    0.701    cutoff for local pot                                                        
   LCOR   =        T    correct aug charges                                                         
   LPAW   =        T    paw PP                                                                      
   EAUG   =  400.000                                                                                
   RMAX   =    1.123    core radius for proj-oper                                                   
   RAUG   =    1.200    factor for augmentation sphere                                              
   RDEP   =    1.112    radius for radial grids                                                     
   RDEPT  =    0.926    core radius for aug-charge                                                  
                                                                                                    
   Atomic configuration                                                                             
    2 entries                                                                                       
     n  l   j            E        occ.                                                              
     1  0  0.50        -6.4927   1.0000                                                             
     2  1  0.50        -3.4015   0.0000                                                             
   Description                                                                                      
     l       E           TYP  RCUT    TYP  RCUT                                                     
     0     -6.4927494     23  1.100                                                                 
     0      6.8029130     23  1.100                                                                 
     1     -4.0817478     23  1.100                                                                 
  local pseudopotential read in
  atomic valenz-charges read in
  non local Contribution for L=           0  read in
    real space projection operators read in
  non local Contribution for L=           0  read in
    real space projection operators read in
  non local Contribution for L=           1  read in
    real space projection operators read in
    PAW grid and wavefunctions read in
 
   number of l-projection  operators is LMAX  =           3
   number of lm-projection operators is LMMAX =           5
 
 Optimization of the real space projectors (new method)

 maximal supplied QI-value         = 25.13
 optimisation between [QCUT,QGAM] = [ 11.31, 22.87] = [ 35.82,146.48] Ry 
 Optimized for a Real-space Cutoff    1.00 Angstroem

   l    n(q)    QCUT    max X(q) W(low)/X(q) W(high)/X(q)  e(spline) 
   0      7    11.310   115.676    0.43E-03    0.13E-02    0.19E-06
   0      7    11.310    87.132    0.43E-03    0.13E-02    0.18E-06
   1      6    11.310     4.429    0.42E-03    0.74E-03    0.11E-06
   1      6    11.310     2.733    0.34E-03    0.55E-03    0.92E-07
 Optimization of the real space projectors (new method)

 maximal supplied QI-value         = 34.20
 optimisation between [QCUT,QGAM] = [ 11.29, 22.57] = [ 35.68,142.71] Ry 
 Optimized for a Real-space Cutoff    1.16 Angstroem

   l    n(q)    QCUT    max X(q) W(low)/X(q) W(high)/X(q)  e(spline) 
   0      8    11.287    19.460    0.40E-03    0.73E-03    0.16E-06
   0      8    11.287    12.209    0.38E-03    0.70E-03    0.15E-06
   1      7    11.287     4.655    0.22E-03    0.25E-04    0.22E-06
 -----------------------------------------------------------------------------
|                                                                             |
|               ----> ADVICE to this user running VASP <----                  |
|                                                                             |
|     You enforced a specific xc type in the INCAR file but a different       |
|     type was found in the POTCAR file.                                      |
|     I HOPE YOU KNOW WHAT YOU ARE DOING!                                     |
|                                                                             |
 -----------------------------------------------------------------------------

  PAW_PBE C 08Apr2002                   :
 energy of atom  1       EATOM= -147.1560
 kinetic energy error for atom=    0.0076 (will be added to EATOM!!)
  PAW_PBE H 15Jun2001                   :
 energy of atom  2       EATOM=  -12.4884
 kinetic energy error for atom=    0.0020 (will be added to EATOM!!)
 
 
 POSCAR: C  H
  positions in cartesian coordinates
  No initial velocities read in
 exchange correlation table for  LEXCH =       17
   RHO(1)=    0.500       N(1)  =     2000
   RHO(2)=  100.500       N(2)  =     4000

 VTST: version 4.1, (05/19/21)

 CHAIN: initializing optimizer
 
 OPT: Using VASP Conjugate-Gradient optimizer
 CHAIN: Read ICHAIN            0
 
 POSCAR: C  H
  positions in cartesian coordinates
  No initial velocities read in
 


--------------------------------------------------------------------------------------------------------


 ion  position               nearest neighbor table
   1  0.500  0.481  0.457-  17 1.10  12 1.10   5 1.53   4 1.53
   2  0.500  0.482  0.543-  10 1.10  11 1.10   3 1.53   4 1.53
   3  0.500  0.512  0.585-   7 1.09   8 1.09   9 1.09   2 1.53
   4  0.500  0.512  0.500-  15 1.10  16 1.10   2 1.53   1 1.53
   5  0.500  0.511  0.415-   6 1.09  14 1.09  13 1.09   1 1.53
   6  0.500  0.489  0.385-   5 1.09
   7  0.500  0.490  0.615-   3 1.09
   8  0.463  0.535  0.586-   3 1.09
   9  0.537  0.535  0.587-   3 1.09
  10  0.537  0.458  0.543-   2 1.10
  11  0.463  0.458  0.543-   2 1.10
  12  0.463  0.458  0.458-   1 1.10
  13  0.537  0.534  0.413-   5 1.09
  14  0.463  0.534  0.413-   5 1.09
  15  0.463  0.535  0.500-   4 1.10
  16  0.537  0.535  0.500-   4 1.10
  17  0.537  0.458  0.458-   1 1.10
 
  LATTYP: Found a simple orthorhombic cell.
 ALAT       =    23.6707801819
 B/A-ratio  =     1.1785113316
 C/A-ratio  =     1.2673853489
  
  Lattice vectors:
  
 A1 = (  23.6707801819,   0.0000000000,   0.0000000000)
 A2 = (   0.0000000000,  27.8962826733,   0.0000000000)
 A3 = (   0.0000000000,   0.0000000000,  30.0000000000)


Analysis of symmetry for initial positions (statically):
=====================================================================
 Subroutine PRICEL returns:
 Original cell was already a primitive cell.
 

 Routine SETGRP: Setting up the symmetry group for a 
 simple orthorhombic supercell.


 Subroutine GETGRP returns: Found  1 space group operations
 (whereof  1 operations were pure point group operations)
 out of a pool of  8 trial point group operations.


The static configuration has the point symmetry C_1 .


Analysis of symmetry for dynamics (positions and initial velocities):
=====================================================================
 Subroutine PRICEL returns:
 Original cell was already a primitive cell.
 

 Routine SETGRP: Setting up the symmetry group for a 
 simple orthorhombic supercell.


 Subroutine GETGRP returns: Found  1 space group operations
 (whereof  1 operations were pure point group operations)
 out of a pool of  8 trial point group operations.


The dynamic configuration has the point symmetry C_1 .


 Subroutine INISYM returns: Found  1 space group operations
 (whereof  1 operations are pure point group operations),
 and found     1 'primitive' translations


----------------------------------------------------------------------------------------

                                     Primitive cell                                     

  volume of cell :   19809.8033

  direct lattice vectors                    reciprocal lattice vectors
    23.670780182  0.000000000  0.000000000     0.042246178  0.000000000  0.000000000
     0.000000000 27.896282673  0.000000000     0.000000000  0.035847070  0.000000000
     0.000000000  0.000000000 30.000000000     0.000000000  0.000000000  0.033333333

  length of vectors
    23.670780182 27.896282673 30.000000000     0.042246178  0.035847070  0.033333333

  position of ions in fractional coordinates (direct lattice)
     0.499980546  0.481234443  0.457438712
     0.500040100  0.481811264  0.542753666
     0.500028907  0.512357494  0.585106940
     0.499999548  0.511636621  0.499945607
     0.499953449  0.511254634  0.414754598
     0.499951000  0.488625634  0.385035051
     0.499947672  0.489926025  0.614958836
     0.462701316  0.535433807  0.586448107
     0.537427370  0.535351395  0.586533368
     0.537086997  0.458191041  0.542754522
     0.463018339  0.458157661  0.542768904
     0.462904528  0.457633843  0.457713170
     0.537239909  0.534381901  0.413226431
     0.462667858  0.534378720  0.413241834
     0.462901851  0.535291174  0.499835930
     0.537073744  0.535319569  0.499800130
     0.537049016  0.457631937  0.457689400

  ion indices of the primitive-cell ions
   primitive index   ion index
                 1           1
                 2           2
                 3           3
                 4           4
                 5           5
                 6           6
                 7           7
                 8           8
                 9           9
                10          10
                11          11
                12          12
                13          13
                14          14
                15          15
                16          16
                17          17

----------------------------------------------------------------------------------------

 
 
 KPOINTS: KPOINTS created by Atomic Simulation Env

Automatic generation of k-mesh.
 Grid dimensions read from file:
 generate k-points for:    1    1    1

 Generating k-lattice:

  Cartesian coordinates                     Fractional coordinates (reciprocal lattice)
     0.042246178  0.000000000  0.000000000     1.000000000  0.000000000  0.000000000
     0.000000000  0.035847070  0.000000000     0.000000000  1.000000000  0.000000000
     0.000000000  0.000000000  0.033333333     0.000000000  0.000000000  1.000000000

  Length of vectors
     0.042246178  0.035847070  0.033333333

  Shift w.r.t. Gamma in fractional coordinates (k-lattice)
     0.000000000  0.000000000  0.000000000

 
 Subroutine IBZKPT returns following result:
 ===========================================
 
 Found      1 irreducible k-points:
 
 Following reciprocal coordinates:
            Coordinates               Weight
  0.000000  0.000000  0.000000      1.000000
 
 Following cartesian coordinates:
            Coordinates               Weight
  0.000000  0.000000  0.000000      1.000000
 


--------------------------------------------------------------------------------------------------------




 Dimension of arrays:
   k-points           NKPTS =      1   k-points in BZ     NKDIM =      1   number of bands    NBANDS=     48
   number of dos      NEDOS =    301   number of ions     NIONS =     17
   non local maximal  LDIM  =      4   non local SUM 2l+1 LMDIM =      8
   total plane-waves  NPLWV = ******
   max r-space proj   IRMAX =   1304   max aug-charges    IRDMAX=   2441
   dimension x,y,z NGX =   140 NGY =  160 NGZ =  168
   dimension x,y,z NGXF=   280 NGYF=  320 NGZF=  336
   support grid    NGXF=   280 NGYF=  320 NGZF=  336
   ions per type =               5  12
   NGX,Y,Z   is equivalent  to a cutoff of   9.83,  9.54,  9.31 a.u.
   NGXF,Y,Z  is equivalent  to a cutoff of  19.67, 19.07, 18.62 a.u.

 SYSTEM =  unknown system                          
 POSCAR =  C  H                                    

 Startparameter for this run:
   NWRITE =      2    write-flag & timer
   PREC   = normal    normal or accurate (medium, high low for compatibility)
   ISTART =      0    job   : 0-new  1-cont  2-samecut
   ICHARG =      2    charge: 1-file 2-atom 10-const
   ISPIN  =      1    spin polarized calculation?
   LNONCOLLINEAR =      F non collinear calculations
   LSORBIT =      F    spin-orbit coupling
   INIWAV =      1    electr: 0-lowe 1-rand  2-diag
   LASPH  =      F    aspherical Exc in radial PAW
 Electronic Relaxation 1
   ENCUT  =  500.0 eV  36.75 Ry    6.06 a.u.  43.16 50.86 54.70*2*pi/ulx,y,z
   ENINI  =  500.0     initial cutoff
   ENAUG  =  644.9 eV  augmentation charge cutoff
   NELM   =    200;   NELMIN=  2; NELMDL= -5     # of ELM steps 
   EDIFF  = 0.1E-04   stopping-criterion for ELM
   LREAL  =      T    real-space projection
   NLSPLINE    = F    spline interpolate recip. space projectors
   LCOMPAT=      F    compatible to vasp.4.4
   GGA_COMPAT  = T    GGA compatible to vasp.4.4-vasp.4.6
   LMAXPAW     = -100 max onsite density
   LMAXMIX     =    2 max onsite mixed and CHGCAR
   VOSKOWN=      0    Vosko Wilk Nusair interpolation
   ROPT   =   -0.00050  -0.00050
 Ionic relaxation
   EDIFFG = -.5E-01   stopping-criterion for IOM
   NSW    =    500    number of steps for IOM
   NBLOCK =      1;   KBLOCK =    500    inner block; outer block 
   IBRION =      2    ionic relax: 0-MD 1-quasi-New 2-CG
   NFREE  =      1    steps in history (QN), initial steepest desc. (CG)
   ISIF   =      2    stress and relaxation
   IWAVPR =     11    prediction:  0-non 1-charg 2-wave 3-comb
   ISYM   =      2    0-nonsym 1-usesym 2-fastsym
   LCORR  =      T    Harris-Foulkes like correction to forces

   POTIM  = 0.5000    time-step for ionic-motion
   TEIN   =    0.0    initial temperature
   TEBEG  =    0.0;   TEEND  =   0.0 temperature during run
   SMASS  =  -3.00    Nose mass-parameter (am)
   estimated Nose-frequenzy (Omega)   =  0.10E-29 period in steps = 0.13E+47 mass=  -0.128E-25a.u.
   SCALEE = 1.0000    scale energy and forces
   NPACO  =    256;   APACO  = 10.0  distance and # of slots for P.C.
   PSTRESS=    0.0 pullay stress

  Mass of Ions in am
   POMASS =  12.01  1.00
  Ionic Valenz
   ZVAL   =   4.00  1.00
  Atomic Wigner-Seitz radii
   RWIGS  =  -1.00 -1.00
  virtual crystal weights 
   VCA    =   1.00  1.00
   NELECT =      32.0000    total number of electrons
   NUPDOWN=      -1.0000    fix difference up-down

 DOS related values:
   EMIN   =  10.00;   EMAX   =-10.00  energy-range for DOS
   EFERMI =   0.00
   ISMEAR =     0;   SIGMA  =   0.01  broadening in eV -4-tet -1-fermi 0-gaus

 Electronic relaxation 2 (details)
   IALGO  =     58    algorithm
   LDIAG  =      T    sub-space diagonalisation (order eigenvalues)
   LSUBROT=      F    optimize rotation matrix (better conditioning)
   TURBO    =      0    0=normal 1=particle mesh
   IRESTART =      0    0=no restart 2=restart with 2 vectors
   NREBOOT  =      0    no. of reboots
   NMIN     =      0    reboot dimension
   EREF     =   0.00    reference energy to select bands
   IMIX   =      4    mixing-type and parameters
     AMIX     =   0.40;   BMIX     =  1.00
     AMIX_MAG =   1.60;   BMIX_MAG =  1.00
     AMIN     =   0.10
     WC   =   100.;   INIMIX=   1;  MIXPRE=   1;  MAXMIX= -45

 Intra band minimization:
   WEIMIN = 0.0010     energy-eigenvalue tresh-hold
   EBREAK =  0.52E-07  absolut break condition
   DEPER  =   0.30     relativ break condition  

   TIME   =   0.40     timestep for ELM

  volume/ion in A,a.u.               =    1165.28      7863.71
  Fermi-wavevector in a.u.,A,eV,Ry     =   0.192087  0.362992  0.502020  0.036897
  Thomas-Fermi vector in A             =   0.934551
 
 Write flags
   LWAVE        =      F    write WAVECAR
   LDOWNSAMPLE  =      F    k-point downsampling of WAVECAR
   LCHARG       =      F    write CHGCAR
   LVTOT        =      F    write LOCPOT, total local potential
   LVHAR        =      F    write LOCPOT, Hartree potential only
   LELF         =      F    write electronic localiz. function (ELF)
   LORBIT       =      0    0 simple, 1 ext, 2 COOP (PROOUT), +10 PAW based schemes


 Dipole corrections
   LMONO  =      F    monopole corrections only (constant potential shift)
   LDIPOL =      F    correct potential (dipole corrections)
   IDIPOL =      0    1-x, 2-y, 3-z, 4-all directions 
   EPSILON=  1.0000000 bulk dielectric constant

 Exchange correlation treatment:
   GGA     =    BF    GGA type
   LEXCH   =    17    internal setting for exchange type
   LIBXC   =     F    Libxc                    
   VOSKOWN =     0    Vosko Wilk Nusair interpolation
   LHFCALC =     F    Hartree Fock is set to
   LHFONE  =     F    Hartree Fock one center treatment
   AEXX    =    0.0000 exact exchange contribution

 vdW DFT:
   LUSE_VDW   =     T    switch on vdW DFT
   Zab_VDW    =******    correlation parameter
   PARAM1     =0.1234
   PARAM2     =1.0000
   PARAM3     =0.0000
   -- rVV10 --
   BPARAM     = 6.3000
   CPARAM     = 0.0093

 Linear response parameters
   LEPSILON=     F    determine dielectric tensor
   LRPA    =     F    only Hartree local field effects (RPA)
   LNABLA  =     F    use nabla operator in PAW spheres
   LVEL    =     F    velocity operator in full k-point grid
   CSHIFT  =0.1000    complex shift for real part using Kramers Kronig
   OMEGAMAX=  -1.0    maximum frequency
   DEG_THRESHOLD= 0.2000000E-02 threshold for treating states as degnerate
   RTIME   =   -0.100 relaxation time in fs
  (WPLASMAI=    0.000 imaginary part of plasma frequency in eV, 0.658/RTIME)
   DFIELD  = 0.0000000 0.0000000 0.0000000 field for delta impulse in time
 
  Optional k-point grid parameters
   LKPOINTS_OPT  =     F    use optional k-point grid
   KPOINTS_OPT_MODE=     1    mode for optional k-point grid
 
 Orbital magnetization related:
   ORBITALMAG=     F  switch on orbital magnetization
   LCHIMAG   =     F  perturbation theory with respect to B field
   DQ        =  0.001000  dq finite difference perturbation B field
   LLRAUG    =     F  two centre corrections for induced B field



--------------------------------------------------------------------------------------------------------


 conjugate gradient relaxation of ions
 charge density and potential will be updated during run
 non-spin polarized calculation
 Conjugate gradient for all bands (Freysoldt, et al. PRB 79, 241103 (2009))
 preconditioned conjugated gradient                                        
 perform sub-space diagonalisation
    before iterative eigenvector-optimisation
 modified Broyden-mixing scheme, WC =      100.0
 initial mixing is a Kerker type mixing with AMIX =  0.4000 and BMIX =      1.0000
 Hartree-type preconditioning will be used
 using additional bands           32
 real space projection scheme for non local part
 use partial core corrections
 no Harris-corrections to forces 
 use gradient corrections 
 use of overlap-Matrix (Vanderbilt PP)
 Gauss-broadening in eV      SIGMA  =   0.01


--------------------------------------------------------------------------------------------------------


  energy-cutoff  :      500.00
  volume of cell :    19809.80
      direct lattice vectors                 reciprocal lattice vectors
    23.670780182  0.000000000  0.000000000     0.042246178  0.000000000  0.000000000
     0.000000000 27.896282673  0.000000000     0.000000000  0.035847070  0.000000000
     0.000000000  0.000000000 30.000000000     0.000000000  0.000000000  0.033333333

  length of vectors
    23.670780182 27.896282673 30.000000000     0.042246178  0.035847070  0.033333333


 
 k-points in units of 2pi/SCALE and weight: KPOINTS created by Atomic Simulation Env
   0.00000000  0.00000000  0.00000000       1.000
 
 k-points in reciprocal lattice and weights: KPOINTS created by Atomic Simulation Env
   0.00000000  0.00000000  0.00000000       1.000
 
 position of ions in fractional coordinates (direct lattice) 
   0.49998055  0.48123444  0.45743871
   0.50004010  0.48181126  0.54275367
   0.50002891  0.51235749  0.58510694
   0.49999955  0.51163662  0.49994561
   0.49995345  0.51125463  0.41475460
   0.49995100  0.48862563  0.38503505
   0.49994767  0.48992603  0.61495884
   0.46270132  0.53543381  0.58644811
   0.53742737  0.53535140  0.58653337
   0.53708700  0.45819104  0.54275452
   0.46301834  0.45815766  0.54276890
   0.46290453  0.45763384  0.45771317
   0.53723991  0.53438190  0.41322643
   0.46266786  0.53437872  0.41324183
   0.46290185  0.53529117  0.49983593
   0.53707374  0.53531957  0.49980013
   0.53704902  0.45763194  0.45768940
 
 position of ions in cartesian coordinates  (Angst):
  11.83492961 13.42465205 13.72316137
  11.83633930 13.44074321 16.28260998
  11.83607435 14.29286949 17.55320819
  11.83537940 14.27275980 14.99836822
  11.83428819 14.26210379 12.44263793
  11.83423023 13.63083881 11.55105153
  11.83415144 13.66711488 18.44876509
  10.95250115 14.93661282 17.59344322
  12.72132514 14.93431386 17.59600104
  12.71326823 12.78182681 16.28263566
  10.96000533 12.78089563 16.28306711
  10.95731133 12.76628303 13.73139509
  12.71688780 14.90726855 12.39679294
  10.95170916 14.90717982 12.39725503
  10.95724797 14.93263391 14.99507791
  12.71295453 14.93342602 14.99400390
  12.71236920 12.76622987 13.73068199
 


--------------------------------------------------------------------------------------------------------


 use parallel FFT for orbitals z direction half grid
 k-point   1 :   0.0000 0.0000 0.0000  plane waves:  251494

 maximum and minimum number of plane-waves per node :     62879    62871

 maximum number of plane-waves:    251494
 maximum index in each direction: 
   IXMAX=   43   IYMAX=   50   IZMAX=   54
   IXMIN=  -43   IYMIN=  -50   IZMIN=    0


 real space projection operators:
  total allocation   :        810.46 KBytes
  max/ min on nodes  :        204.02        198.98


 parallel 3D FFT for wavefunctions:
    minimum data exchange during FFTs selected (reduces bandwidth)
 parallel 3D FFT for charge:
    minimum data exchange during FFTs selected (reduces bandwidth)


 total amount of memory used by VASP MPI-rank0   110073. kBytes
=======================================================================

   base      :      30000. kBytes
   nonlr-proj:        244. kBytes
   fftplans  :      26989. kBytes
   grid      :      49815. kBytes
   one-center:          7. kBytes
   wavefun   :       3018. kBytes
 
     INWAV:  cpu time      0.0005: real time      0.0009
 Broyden mixing: mesh for mixing (old mesh)
   NGX = 87   NGY =101   NGZ =109
  (NGX  =280   NGY  =320   NGZ  =336)
  gives a total of 957783 points

 initial charge density was supplied:
 charge density of overlapping atoms calculated
 number of electron      32.0000000 magnetization 
 keeping initial charge density in first step


--------------------------------------------------------------------------------------------------------


 Maximum index for non-local projection operator          307
 Maximum index for augmentation-charges            0 (set IRDMAX)


--------------------------------------------------------------------------------------------------------


 First call to EWALD:  gamma=   0.066
 Maximum number of real-space cells 3x 3x 3
 Maximum number of reciprocal cells 2x 3x 3

    FEWALD:  cpu time      0.0070: real time      0.0070


--------------------------------------- Iteration      1(   1)  ---------------------------------------


vdW kernel read from vdw_kernel.bindat
  0.0000  0.2424  0.5071  0.7962  1.1119  1.4567  1.8333  2.2446  2.6937  3.1842
  3.7199  4.3049  4.9438  5.6415  6.4036  7.2358  8.1446  9.1372 10.2212 11.4050
 12.6979 14.1099 15.6519 17.3360 19.1751 21.1837 23.3773 25.7729 28.3892 31.2465
 34.3669 37.7748 41.4965 45.5611 50.0000
 
    POTLOK:  cpu time      9.9335: real time      9.9504
    SETDIJ:  cpu time      0.0103: real time      0.0106
    TRIAL :  cpu time      2.0164: real time      2.0713
    CORREC:  cpu time      0.0008: real time      0.0008
    --------------------------------------------
      LOOP:  cpu time     11.9695: real time     12.0457

 eigenvalue-minimisations  :   192
 total energy-change (2. order) : 0.9532452E+02  (-0.6332234E+03)
 number of electron      32.0000000 magnetization 
 augmentation part       32.0000000 magnetization 

 Free energy of the ion-electron system (eV)
  ---------------------------------------------------
  alpha Z        PSCENC =         0.21309434
  Ewald energy   TEWEN  =      2179.48063387
  -Hartree energ DENC   =     -2712.42929627
  -exchange      EXHF   =         0.00000000
  -V(xc)+E(xc)   XCENC  =        94.73342802
  PAW double counting   =       565.91530638     -570.95576033
  entropy T*S    EENTRO =        -0.00000000
  eigenvalues    EBANDS =      -365.94724394
  atomic energy  EATOM  =       904.31436008
  ---------------------------------------------------
  free energy    TOTEN  =        95.32452214 eV

  energy without entropy =       95.32452214  energy(sigma->0) =       95.32452214


--------------------------------------------------------------------------------------------------------




--------------------------------------- Iteration      1(   2)  ---------------------------------------


    TRIAL :  cpu time      0.9949: real time      1.0079
    CORREC:  cpu time      0.0004: real time      0.0004
    --------------------------------------------
      LOOP:  cpu time      1.0099: real time      1.0533

 eigenvalue-minimisations  :    96
 total energy-change (2. order) :-0.1479957E+03  (-0.1479957E+03)
 number of electron      32.0000000 magnetization 
 augmentation part       32.0000000 magnetization 

 Free energy of the ion-electron system (eV)
  ---------------------------------------------------
  alpha Z        PSCENC =         0.21309434
  Ewald energy   TEWEN  =      2179.48063387
  -Hartree energ DENC   =     -2712.42929627
  -exchange      EXHF   =         0.00000000
  -V(xc)+E(xc)   XCENC  =        94.73342802
  PAW double counting   =       565.91530638     -570.95576033
  entropy T*S    EENTRO =        -0.00000000
  eigenvalues    EBANDS =      -513.94298745
  atomic energy  EATOM  =       904.31436008
  ---------------------------------------------------
  free energy    TOTEN  =       -52.67122137 eV

  energy without entropy =      -52.67122137  energy(sigma->0) =      -52.67122137


--------------------------------------------------------------------------------------------------------




--------------------------------------- Iteration      1(   3)  ---------------------------------------


    TRIAL :  cpu time      1.7337: real time      1.7390
    CORREC:  cpu time      0.0004: real time      0.0004
    --------------------------------------------
      LOOP:  cpu time      1.7406: real time      1.7744

 eigenvalue-minimisations  :   192
 total energy-change (2. order) :-0.4185632E+02  (-0.4185632E+02)
 number of electron      32.0000000 magnetization 
 augmentation part       32.0000000 magnetization 

 Free energy of the ion-electron system (eV)
  ---------------------------------------------------
  alpha Z        PSCENC =         0.21309434
  Ewald energy   TEWEN  =      2179.48063387
  -Hartree energ DENC   =     -2712.42929627
  -exchange      EXHF   =         0.00000000
  -V(xc)+E(xc)   XCENC  =        94.73342802
  PAW double counting   =       565.91530638     -570.95576033
  entropy T*S    EENTRO =        -0.00000000
  eigenvalues    EBANDS =      -555.79930413
  atomic energy  EATOM  =       904.31436008
  ---------------------------------------------------
  free energy    TOTEN  =       -94.52753805 eV

  energy without entropy =      -94.52753805  energy(sigma->0) =      -94.52753805


--------------------------------------------------------------------------------------------------------




--------------------------------------- Iteration      1(   4)  ---------------------------------------


    TRIAL :  cpu time      0.9532: real time      0.9581
    CORREC:  cpu time      0.0004: real time      0.0004
    --------------------------------------------
      LOOP:  cpu time      0.9590: real time      0.9913

 eigenvalue-minimisations  :    96
 total energy-change (2. order) :-0.1448812E+01  (-0.1448812E+01)
 number of electron      32.0000000 magnetization 
 augmentation part       32.0000000 magnetization 

 Free energy of the ion-electron system (eV)
  ---------------------------------------------------
  alpha Z        PSCENC =         0.21309434
  Ewald energy   TEWEN  =      2179.48063387
  -Hartree energ DENC   =     -2712.42929627
  -exchange      EXHF   =         0.00000000
  -V(xc)+E(xc)   XCENC  =        94.73342802
  PAW double counting   =       565.91530638     -570.95576033
  entropy T*S    EENTRO =        -0.00000000
  eigenvalues    EBANDS =      -557.24811594
  atomic energy  EATOM  =       904.31436008
  ---------------------------------------------------
  free energy    TOTEN  =       -95.97634986 eV

  energy without entropy =      -95.97634986  energy(sigma->0) =      -95.97634986


--------------------------------------------------------------------------------------------------------




--------------------------------------- Iteration      1(   5)  ---------------------------------------


    TRIAL :  cpu time      1.7259: real time      1.7371
    CORREC:  cpu time      0.0004: real time      0.0005
    CHARGE:  cpu time      0.2679: real time      0.2682
    --------------------------------------------
      LOOP:  cpu time      2.0269: real time      2.0388

 eigenvalue-minimisations  :   192
 total energy-change (2. order) :-0.2515283E-01  (-0.2515283E-01)
 number of electron      32.0000003 magnetization 
 augmentation part        0.8859465 magnetization 

 Free energy of the ion-electron system (eV)
  ---------------------------------------------------
  alpha Z        PSCENC =         0.21309434
  Ewald energy   TEWEN  =      2179.48063387
  -Hartree energ DENC   =     -2712.42929627
  -exchange      EXHF   =         0.00000000
  -V(xc)+E(xc)   XCENC  =        94.73342802
  PAW double counting   =       565.91530638     -570.95576033
  entropy T*S    EENTRO =        -0.00000000
  eigenvalues    EBANDS =      -557.27326877
  atomic energy  EATOM  =       904.31436008
  ---------------------------------------------------
  free energy    TOTEN  =       -96.00150269 eV

  energy without entropy =      -96.00150269  energy(sigma->0) =      -96.00150269


--------------------------------------------------------------------------------------------------------




--------------------------------------- Iteration      1(   6)  ---------------------------------------


    POTLOK:  cpu time      8.7244: real time      8.7349
    SETDIJ:  cpu time      0.0087: real time      0.0087
    TRIAL :  cpu time      0.6085: real time      0.6150
    CORREC:  cpu time      9.5707: real time      9.5821
    CHARGE:  cpu time      0.2468: real time      0.2482
    --------------------------------------------
      LOOP:  cpu time     19.1623: real time     19.2202

 eigenvalue-minimisations  :     0
 total energy-change (2. order) : 0.2133398E+02  (-0.8486275E+01)
 number of electron      31.9999999 magnetization 
 augmentation part        0.7901567 magnetization 

 Free energy of the ion-electron system (eV)
  ---------------------------------------------------
  alpha Z        PSCENC =         0.21309434
  Ewald energy   TEWEN  =      2179.48063387
  -Hartree energ DENC   =     -3055.23456766
  -exchange      EXHF   =         0.00000000
  -V(xc)+E(xc)   XCENC  =       110.42761803
  PAW double counting   =      2294.48592299    -2299.73924271
  entropy T*S    EENTRO =        -0.00000000
  eigenvalues    EBANDS =      -208.61533846
  atomic energy  EATOM  =       904.31436008
  ---------------------------------------------------
  free energy    TOTEN  =       -74.66751954 eV

  energy without entropy =      -74.66751954  energy(sigma->0) =      -74.66751954


--------------------------------------------------------------------------------------------------------




--------------------------------------- Iteration      1(   7)  ---------------------------------------


    POTLOK:  cpu time      8.9244: real time      8.9647
    SETDIJ:  cpu time      0.0081: real time      0.0081
    TRIAL :  cpu time      0.5726: real time      0.5775
    CORREC:  cpu time      9.4596: real time      9.4709
    CHARGE:  cpu time      0.2435: real time      0.2436
    --------------------------------------------
      LOOP:  cpu time     19.2123: real time     19.2977

 eigenvalue-minimisations  :     0
 total energy-change (2. order) :-0.8530315E+01  (-0.1056555E+01)
 number of electron      31.9999997 magnetization 
 augmentation part        0.7570422 magnetization 

 Free energy of the ion-electron system (eV)
  ---------------------------------------------------
  alpha Z        PSCENC =         0.21309434
  Ewald energy   TEWEN  =      2179.48063387
  -Hartree energ DENC   =     -2913.79560730
  -exchange      EXHF   =         0.00000000
  -V(xc)+E(xc)   XCENC  =       104.68791491
  PAW double counting   =      2226.45613202    -2231.62792298
  entropy T*S    EENTRO =        -0.00000000
  eigenvalues    EBANDS =      -352.92643906
  atomic energy  EATOM  =       904.31436008
  ---------------------------------------------------
  free energy    TOTEN  =       -83.19783413 eV

  energy without entropy =      -83.19783413  energy(sigma->0) =      -83.19783413


--------------------------------------------------------------------------------------------------------




--------------------------------------- Iteration      1(   8)  ---------------------------------------


    POTLOK:  cpu time      8.7788: real time      8.7923
    SETDIJ:  cpu time      0.0087: real time      0.0087
    TRIAL :  cpu time      0.5983: real time      0.6004
    CORREC:  cpu time      9.1536: real time      9.1638
    CHARGE:  cpu time      0.2430: real time      0.2431
    --------------------------------------------
      LOOP:  cpu time     18.7849: real time     18.8587

 eigenvalue-minimisations  :     0
 total energy-change (2. order) :-0.1067725E+01  (-0.5617306E+00)
 number of electron      31.9999996 magnetization 
 augmentation part        0.7488843 magnetization 

 Free energy of the ion-electron system (eV)
  ---------------------------------------------------
  alpha Z        PSCENC =         0.21309434
  Ewald energy   TEWEN  =      2179.48063387
  -Hartree energ DENC   =     -2905.58820517
  -exchange      EXHF   =         0.00000000
  -V(xc)+E(xc)   XCENC  =       104.56680640
  PAW double counting   =      2297.70552015    -2302.84935295
  entropy T*S    EENTRO =        -0.00000000
  eigenvalues    EBANDS =      -362.10841616
  atomic energy  EATOM  =       904.31436008
  ---------------------------------------------------
  free energy    TOTEN  =       -84.26555944 eV

  energy without entropy =      -84.26555944  energy(sigma->0) =      -84.26555944


--------------------------------------------------------------------------------------------------------




--------------------------------------- Iteration      1(   9)  ---------------------------------------


    POTLOK:  cpu time      8.7426: real time      8.8590
    SETDIJ:  cpu time      0.0083: real time      0.0083
    TRIAL :  cpu time      0.5990: real time      0.6032
    CORREC:  cpu time      9.3106: real time      9.3235
    CHARGE:  cpu time      0.2411: real time      0.2411
    --------------------------------------------
      LOOP:  cpu time     18.9045: real time     19.0662

 eigenvalue-minimisations  :     0
 total energy-change (2. order) :-0.5420337E+00  (-0.1701051E+00)
 number of electron      31.9999996 magnetization 
 augmentation part        0.7522459 magnetization 

 Free energy of the ion-electron system (eV)
  ---------------------------------------------------
  alpha Z        PSCENC =         0.21309434
  Ewald energy   TEWEN  =      2179.48063387
  -Hartree energ DENC   =     -2889.60080658
  -exchange      EXHF   =         0.00000000
  -V(xc)+E(xc)   XCENC  =       103.96023406
  PAW double counting   =      2323.63835870    -2328.76398033
  entropy T*S    EENTRO =        -0.00000000
  eigenvalues    EBANDS =      -378.04948725
  atomic energy  EATOM  =       904.31436008
  ---------------------------------------------------
  free energy    TOTEN  =       -84.80759312 eV

  energy without entropy =      -84.80759312  energy(sigma->0) =      -84.80759312


--------------------------------------------------------------------------------------------------------




--------------------------------------- Iteration      1(  10)  ---------------------------------------


    POTLOK:  cpu time      9.0457: real time      9.0574
    SETDIJ:  cpu time      0.0412: real time      0.0412
    TRIAL :  cpu time      0.5659: real time      0.5707
    CORREC:  cpu time      9.4354: real time      9.4455
    CHARGE:  cpu time      0.2652: real time      0.2660
    --------------------------------------------
      LOOP:  cpu time     19.3566: real time     19.4130

 eigenvalue-minimisations  :     0
 total energy-change (2. order) :-0.1686130E+00  (-0.4744686E-01)
 number of electron      31.9999996 magnetization 
 augmentation part        0.7543933 magnetization 

 Free energy of the ion-electron system (eV)
  ---------------------------------------------------
  alpha Z        PSCENC =         0.21309434
  Ewald energy   TEWEN  =      2179.48063387
  -Hartree energ DENC   =     -2889.16521041
  -exchange      EXHF   =         0.00000000
  -V(xc)+E(xc)   XCENC  =       103.92612488
  PAW double counting   =      2313.12420697    -2318.25010297
  entropy T*S    EENTRO =        -0.00000000
  eigenvalues    EBANDS =      -378.61931290
  atomic energy  EATOM  =       904.31436008
  ---------------------------------------------------
  free energy    TOTEN  =       -84.97620614 eV

  energy without entropy =      -84.97620614  energy(sigma->0) =      -84.97620614


--------------------------------------------------------------------------------------------------------




--------------------------------------- Iteration      1(  11)  ---------------------------------------


    POTLOK:  cpu time      8.9913: real time      9.0034
    SETDIJ:  cpu time      0.0086: real time      0.0086
    TRIAL :  cpu time      0.5697: real time      0.5725
    CORREC:  cpu time      9.5853: real time      9.5960
    CHARGE:  cpu time      0.2417: real time      0.2417
    --------------------------------------------
      LOOP:  cpu time     19.4083: real time     19.4653

 eigenvalue-minimisations  :     0
 total energy-change (2. order) :-0.4738226E-01  (-0.1337189E-01)
 number of electron      31.9999997 magnetization 
 augmentation part        0.7550383 magnetization 

 Free energy of the ion-electron system (eV)
  ---------------------------------------------------
  alpha Z        PSCENC =         0.21309434
  Ewald energy   TEWEN  =      2179.48063387
  -Hartree energ DENC   =     -2889.39743739
  -exchange      EXHF   =         0.00000000
  -V(xc)+E(xc)   XCENC  =       103.89811828
  PAW double counting   =      2287.62212467    -2292.75289607
  entropy T*S    EENTRO =        -0.00000000
  eigenvalues    EBANDS =      -378.40158617
  atomic energy  EATOM  =       904.31436008
  ---------------------------------------------------
  free energy    TOTEN  =       -85.02358840 eV

  energy without entropy =      -85.02358840  energy(sigma->0) =      -85.02358840


--------------------------------------------------------------------------------------------------------




--------------------------------------- Iteration      1(  12)  ---------------------------------------


    POTLOK:  cpu time      8.7716: real time      8.8508
    SETDIJ:  cpu time      0.0084: real time      0.0084
    TRIAL :  cpu time      0.5676: real time      0.5711
    CORREC:  cpu time      9.3153: real time      9.3266
    CHARGE:  cpu time      0.2434: real time      0.2434
    --------------------------------------------
      LOOP:  cpu time     18.9089: real time     19.0331

 eigenvalue-minimisations  :     0
 total energy-change (2. order) :-0.1340811E-01  (-0.4108977E-02)
 number of electron      31.9999997 magnetization 
 augmentation part        0.7560820 magnetization 

 Free energy of the ion-electron system (eV)
  ---------------------------------------------------
  alpha Z        PSCENC =         0.21309434
  Ewald energy   TEWEN  =      2179.48063387
  -Hartree energ DENC   =     -2888.45269984
  -exchange      EXHF   =         0.00000000
  -V(xc)+E(xc)   XCENC  =       103.82775813
  PAW double counting   =      2268.22156915    -2273.35625882
  entropy T*S    EENTRO =        -0.00000000
  eigenvalues    EBANDS =      -379.28545341
  atomic energy  EATOM  =       904.31436008
  ---------------------------------------------------
  free energy    TOTEN  =       -85.03699651 eV

  energy without entropy =      -85.03699651  energy(sigma->0) =      -85.03699651


--------------------------------------------------------------------------------------------------------




--------------------------------------- Iteration      1(  13)  ---------------------------------------


    POTLOK:  cpu time      8.8471: real time      8.8585
    SETDIJ:  cpu time      0.0089: real time      0.0089
    TRIAL :  cpu time      0.5680: real time      0.5713
    CORREC:  cpu time      9.0499: real time      9.0608
    CHARGE:  cpu time      0.2429: real time      0.2432
    --------------------------------------------
      LOOP:  cpu time     18.7490: real time     18.7752

 eigenvalue-minimisations  :     0
 total energy-change (2. order) :-0.4119090E-02  (-0.1499219E-02)
 number of electron      31.9999997 magnetization 
 augmentation part        0.7563269 magnetization 

 Free energy of the ion-electron system (eV)
  ---------------------------------------------------
  alpha Z        PSCENC =         0.21309434
  Ewald energy   TEWEN  =      2179.48063387
  -Hartree energ DENC   =     -2889.42998421
  -exchange      EXHF   =         0.00000000
  -V(xc)+E(xc)   XCENC  =       103.86437096
  PAW double counting   =      2261.38834590    -2266.52603603
  entropy T*S    EENTRO =        -0.00000000
  eigenvalues    EBANDS =      -378.34590049
  atomic energy  EATOM  =       904.31436008
  ---------------------------------------------------
  free energy    TOTEN  =       -85.04111560 eV

  energy without entropy =      -85.04111560  energy(sigma->0) =      -85.04111560


--------------------------------------------------------------------------------------------------------




--------------------------------------- Iteration      1(  14)  ---------------------------------------


    POTLOK:  cpu time      8.5749: real time      8.6599
    SETDIJ:  cpu time      0.0084: real time      0.0084
    TRIAL :  cpu time      0.5754: real time      0.5800
    CORREC:  cpu time      8.8633: real time      8.8749
    CHARGE:  cpu time      0.2442: real time      0.2443
    --------------------------------------------
      LOOP:  cpu time     18.2908: real time     18.4232

 eigenvalue-minimisations  :     0
 total energy-change (2. order) :-0.1500815E-02  (-0.5598129E-03)
 number of electron      31.9999997 magnetization 
 augmentation part        0.7564727 magnetization 

 Free energy of the ion-electron system (eV)
  ---------------------------------------------------
  alpha Z        PSCENC =         0.21309434
  Ewald energy   TEWEN  =      2179.48063387
  -Hartree energ DENC   =     -2889.53672158
  -exchange      EXHF   =         0.00000000
  -V(xc)+E(xc)   XCENC  =       103.87256338
  PAW double counting   =      2259.62253216    -2264.76166082
  entropy T*S    EENTRO =        -0.00000000
  eigenvalues    EBANDS =      -378.24741785
  atomic energy  EATOM  =       904.31436008
  ---------------------------------------------------
  free energy    TOTEN  =       -85.04261642 eV

  energy without entropy =      -85.04261642  energy(sigma->0) =      -85.04261642


--------------------------------------------------------------------------------------------------------




--------------------------------------- Iteration      1(  15)  ---------------------------------------


    POTLOK:  cpu time      8.4403: real time      8.5226
    SETDIJ:  cpu time      0.0090: real time      0.0090
    TRIAL :  cpu time      0.5699: real time      0.5720
    CORREC:  cpu time      8.9298: real time      8.9389
    CHARGE:  cpu time      0.2403: real time      0.2416
    --------------------------------------------
      LOOP:  cpu time     18.1922: real time     18.3165

 eigenvalue-minimisations  :     0
 total energy-change (2. order) :-0.5592702E-03  (-0.1731627E-03)
 number of electron      31.9999997 magnetization 
 augmentation part        0.7565904 magnetization 

 Free energy of the ion-electron system (eV)
  ---------------------------------------------------
  alpha Z        PSCENC =         0.21309434
  Ewald energy   TEWEN  =      2179.48063387
  -Hartree energ DENC   =     -2889.68822838
  -exchange      EXHF   =         0.00000000
  -V(xc)+E(xc)   XCENC  =       103.88097059
  PAW double counting   =      2261.15239720    -2266.29181506
  entropy T*S    EENTRO =        -0.00000000
  eigenvalues    EBANDS =      -378.10458832
  atomic energy  EATOM  =       904.31436008
  ---------------------------------------------------
  free energy    TOTEN  =       -85.04317569 eV

  energy without entropy =      -85.04317569  energy(sigma->0) =      -85.04317569


--------------------------------------------------------------------------------------------------------




--------------------------------------- Iteration      1(  16)  ---------------------------------------


    POTLOK:  cpu time      8.3905: real time      8.4022
    SETDIJ:  cpu time      0.0093: real time      0.0093
    TRIAL :  cpu time      0.5653: real time      0.5693
    CORREC:  cpu time      9.1238: real time      9.1345
    CHARGE:  cpu time      0.2440: real time      0.2440
    --------------------------------------------
      LOOP:  cpu time     18.3356: real time     18.3921

 eigenvalue-minimisations  :     0
 total energy-change (2. order) :-0.1722043E-03  (-0.4555313E-04)
 number of electron      31.9999997 magnetization 
 augmentation part        0.7564895 magnetization 

 Free energy of the ion-electron system (eV)
  ---------------------------------------------------
  alpha Z        PSCENC =         0.21309434
  Ewald energy   TEWEN  =      2179.48063387
  -Hartree energ DENC   =     -2889.89430877
  -exchange      EXHF   =         0.00000000
  -V(xc)+E(xc)   XCENC  =       103.89115341
  PAW double counting   =      2263.37952744    -2268.51868097
  entropy T*S    EENTRO =        -0.00000000
  eigenvalues    EBANDS =      -377.90912729
  atomic energy  EATOM  =       904.31436008
  ---------------------------------------------------
  free energy    TOTEN  =       -85.04334789 eV

  energy without entropy =      -85.04334789  energy(sigma->0) =      -85.04334789


--------------------------------------------------------------------------------------------------------




--------------------------------------- Iteration      1(  17)  ---------------------------------------


    POTLOK:  cpu time      8.6845: real time      8.8008
    SETDIJ:  cpu time      0.0083: real time      0.0083
    TRIAL :  cpu time      0.5737: real time      0.5756
    CORREC:  cpu time      8.9465: real time      8.9561
    CHARGE:  cpu time      0.2396: real time      0.2409
    --------------------------------------------
      LOOP:  cpu time     18.4546: real time     18.6138

 eigenvalue-minimisations  :     0
 total energy-change (2. order) :-0.4511134E-04  (-0.1467416E-04)
 number of electron      31.9999997 magnetization 
 augmentation part        0.7564479 magnetization 

 Free energy of the ion-electron system (eV)
  ---------------------------------------------------
  alpha Z        PSCENC =         0.21309434
  Ewald energy   TEWEN  =      2179.48063387
  -Hartree energ DENC   =     -2889.82674345
  -exchange      EXHF   =         0.00000000
  -V(xc)+E(xc)   XCENC  =       103.88855132
  PAW double counting   =      2264.50862372    -2269.64740268
  entropy T*S    EENTRO =        -0.00000000
  eigenvalues    EBANDS =      -377.97451020
  atomic energy  EATOM  =       904.31436008
  ---------------------------------------------------
  free energy    TOTEN  =       -85.04339300 eV

  energy without entropy =      -85.04339300  energy(sigma->0) =      -85.04339300


--------------------------------------------------------------------------------------------------------




--------------------------------------- Iteration      1(  18)  ---------------------------------------


    POTLOK:  cpu time      8.6470: real time      8.6568
    SETDIJ:  cpu time      0.0083: real time      0.0083
    TRIAL :  cpu time      0.5699: real time      0.5730
    CORREC:  cpu time      8.9566: real time      8.9673
    CHARGE:  cpu time      0.2533: real time      0.2533
    --------------------------------------------
      LOOP:  cpu time     18.4373: real time     18.4903

 eigenvalue-minimisations  :     0
 total energy-change (2. order) :-0.1404801E-04  (-0.5560392E-05)
 number of electron      31.9999997 magnetization 
 augmentation part        0.7563881 magnetization 

 Free energy of the ion-electron system (eV)
  ---------------------------------------------------
  alpha Z        PSCENC =         0.21309434
  Ewald energy   TEWEN  =      2179.48063387
  -Hartree energ DENC   =     -2889.86214052
  -exchange      EXHF   =         0.00000000
  -V(xc)+E(xc)   XCENC  =       103.88995542
  PAW double counting   =      2265.24424796    -2270.38279280
  entropy T*S    EENTRO =        -0.00000000
  eigenvalues    EBANDS =      -377.94076539
  atomic energy  EATOM  =       904.31436008
  ---------------------------------------------------
  free energy    TOTEN  =       -85.04340705 eV

  energy without entropy =      -85.04340705  energy(sigma->0) =      -85.04340705


--------------------------------------------------------------------------------------------------------




--------------------------------------- Iteration      1(  19)  ---------------------------------------


    POTLOK:  cpu time      8.6298: real time      8.6411
    SETDIJ:  cpu time      0.0085: real time      0.0085
    TRIAL :  cpu time      0.5685: real time      0.5706
    CORREC:  cpu time      9.0341: real time      9.0449
    EDDIAG:  cpu time      0.2387: real time      0.2513
    CHARGE:  cpu time      0.2482: real time      0.2483
    --------------------------------------------
      LOOP:  cpu time     18.7306: real time     18.7973

 eigenvalue-minimisations  :     0
 total energy-change (2. order) :-0.5333722E-05  (-0.1967163E-05)
 number of electron      31.9999997 magnetization 
 augmentation part        0.7563813 magnetization 

 Free energy of the ion-electron system (eV)
  ---------------------------------------------------
  alpha Z        PSCENC =         0.21309434
  Ewald energy   TEWEN  =      2179.48063387
  -Hartree energ DENC   =     -2889.82864730
  -exchange      EXHF   =         0.00000000
  -V(xc)+E(xc)   XCENC  =       103.88866839
  PAW double counting   =      2265.44953341    -2270.58797920
  entropy T*S    EENTRO =        -0.00000000
  eigenvalues    EBANDS =      -377.97307598
  atomic energy  EATOM  =       904.31436008
  ---------------------------------------------------
  free energy    TOTEN  =       -85.04341238 eV

  energy without entropy =      -85.04341238  energy(sigma->0) =      -85.04341238


--------------------------------------------------------------------------------------------------------


  average scaling for gradient   1.3949


 average (electrostatic) potential at core
  the test charge radii are     0.6991  0.5201
  (the norm of the test charge is              1.0000)
       1 -58.8433       2 -58.8417       3 -58.7133       4 -58.8021       5 -58.7127
       6 -42.7799       7 -42.7763       8 -42.7605       9 -42.7596      10 -42.6963
      11 -42.6956      12 -42.6942      13 -42.7552      14 -42.7561      15 -42.6917
      16 -42.6914      17 -42.6954
 
 
 
 E-fermi :  -7.7616     XC(G=0):  -0.1279     alpha+bet : -0.0420

 Fermi energy:        -7.7616125244

 k-point     1 :       0.0000    0.0000    0.0000
  band No.  band energies     occupation 
      1     -20.1404      2.00000
      2     -18.8418      2.00000
      3     -16.9471      2.00000
      4     -14.9953      2.00000
      5     -14.3663      2.00000
      6     -11.8382      2.00000
      7     -10.8810      2.00000
      8     -10.7438      2.00000
      9     -10.0372      2.00000
     10      -9.8112      2.00000
     11      -9.3751      2.00000
     12      -8.7720      2.00000
     13      -8.3199      2.00000
     14      -8.1138      2.00000
     15      -7.9697      2.00000
     16      -7.8343      2.00000
     17      -0.9550      0.00000
     18      -0.5901      0.00000
     19      -0.4833      0.00000
     20      -0.4104      0.00000
     21      -0.0264      0.00000
     22       0.0606      0.00000
     23       0.1824      0.00000
     24       0.1965      0.00000
     25       0.2138      0.00000
     26       0.2243      0.00000
     27       0.2270      0.00000
     28       0.2882      0.00000
     29       0.3027      0.00000
     30       0.3191      0.00000
     31       0.3857      0.00000
     32       0.3917      0.00000
     33       0.3987      0.00000
     34       0.4321      0.00000
     35       0.4505      0.00000
     36       0.4566      0.00000
     37       0.4935      0.00000
     38       0.5123      0.00000
     39       0.5499      0.00000
     40       0.6069      0.00000
     41       0.6255      0.00000
     42       0.7108      0.00000
     43       0.9639      0.00000
     44       0.9965      0.00000
     45       1.0046      0.00000
     46       1.1448      0.00000
     47       1.1590      0.00000
     48       1.2552      0.00000


--------------------------------------------------------------------------------------------------------


 soft charge-density along one line, spin component           1
         0         1         2         3         4         5         6         7         8         9
 total charge-density along one line
 
 pseudopotential strength for first ion, spin component:           1
 10.265  13.652  -0.000  -0.000   0.000   0.001   0.001  -0.000
 13.652  18.156  -0.000  -0.000   0.000   0.001   0.001  -0.000
 -0.000  -0.000  -4.258   0.000   0.000   8.329  -0.000  -0.000
 -0.000  -0.000   0.000  -4.256   0.000  -0.000   8.326  -0.000
  0.000   0.000   0.000   0.000  -4.258  -0.000  -0.000   8.329
  0.001   0.001   8.329  -0.000  -0.000 -18.433   0.001   0.000
  0.001   0.001  -0.000   8.326  -0.000   0.001 -18.429   0.000
 -0.000  -0.000  -0.000  -0.000   8.329   0.000   0.000 -18.433
 total augmentation occupancy for first ion, spin component:           1
  8.100  -3.579  -0.088   0.006   0.000  -0.004   0.001   0.000
 -3.579   1.613   0.048   0.001  -0.000  -0.001  -0.001  -0.000
 -0.088   0.048   1.591  -0.001  -0.000   0.135  -0.001  -0.000
  0.006   0.001  -0.001   1.579  -0.000  -0.001   0.137   0.000
  0.000  -0.000  -0.000  -0.000   1.627  -0.000   0.000   0.135
 -0.004  -0.001   0.135  -0.001  -0.000   0.012  -0.000  -0.000
  0.001  -0.001  -0.001   0.137   0.000  -0.000   0.013   0.000
  0.000  -0.000  -0.000   0.000   0.135  -0.000   0.000   0.012


------------------------ aborting loop because EDIFF is reached ----------------------------------------


    FORLOC:  cpu time      0.0574: real time      0.0574
    FORNL :  cpu time      0.5372: real time      0.5387
    STRESS:  cpu time      0.9413: real time      0.9435
    FORCOR:  cpu time      8.3469: real time      8.4807
    OFIELD:  cpu time      0.0016: real time      0.0016

  FORCE on cell =-STRESS in cart. coord.  units (eV):
  Direction    XX          YY          ZZ          XY          YZ          ZX
  --------------------------------------------------------------------------------------
  Alpha Z     0.21309     0.21309     0.21309
  Ewald     361.11771   444.98772  1373.37484    -0.11007     5.59288     0.44670
  Hartree   676.35867   716.71201  1496.75665    -0.06555     4.74625     0.36390
  E(xc)    -117.81742  -118.20510  -118.89035     0.00001    -0.00341    -0.00009
  Local   -1294.11347 -1425.96704 -3144.45078     0.17041   -10.39777    -0.81354
  n-local   -54.64620   -53.05044   -51.45879    -0.00133     0.04686     0.00538
  augment    -0.27320    -0.19851    -0.09377     0.00005     0.00063     0.00007
  Kinetic   428.73637   435.17554   444.46408     0.00043     0.02226    -0.00134
  Fock        0.00000     0.00000     0.00000     0.00000     0.00000     0.00000
  -------------------------------------------------------------------------------------
  Total      -0.42444    -0.33272    -0.08502    -0.00604     0.00769     0.00107
  in kB      -0.03433    -0.02691    -0.00688    -0.00049     0.00062     0.00009
  external pressure =       -0.02 kB  Pullay stress =        0.00 kB


 VOLUME and BASIS-vectors are now :
 -----------------------------------------------------------------------------
  energy-cutoff  :      500.00
  volume of cell :    19809.80
      direct lattice vectors                 reciprocal lattice vectors
    23.670780182  0.000000000  0.000000000     0.042246178  0.000000000  0.000000000
     0.000000000 27.896282673  0.000000000     0.000000000  0.035847070  0.000000000
     0.000000000  0.000000000 30.000000000     0.000000000  0.000000000  0.033333333

  length of vectors
    23.670780182 27.896282673 30.000000000     0.042246178  0.035847070  0.033333333


 FORCES acting on ions:
    Electron-Ion                     Ewald-Force                    Non-Local-Force
 -----------------------------------------------------------------------------------------------
   0.151E-01 0.884E+02 0.597E+02   -.166E-01 -.881E+02 -.593E+02   0.193E-02 -.284E+00 -.328E+00
   -.107E+00 0.876E+02 -.607E+02   0.106E+00 -.873E+02 0.604E+02   -.293E-02 -.308E+00 0.319E+00
   -.247E-01 -.456E+02 -.137E+03   0.261E-01 0.453E+02 0.136E+03   0.759E-03 0.252E+00 0.435E+00
   0.779E-03 -.804E+02 0.634E+00   0.142E-03 0.798E+02 -.644E+00   0.197E-03 0.525E+00 -.121E-01
   0.726E-01 -.436E+02 0.137E+03   -.714E-01 0.433E+02 -.137E+03   0.584E-02 0.353E+00 -.404E+00
   0.120E-01 0.301E+02 0.677E+02   -.128E-01 -.334E+02 -.724E+02   0.859E-04 0.327E+01 0.469E+01
   0.107E+00 0.295E+02 -.680E+02   -.117E+00 -.328E+02 0.727E+02   0.100E-01 0.324E+01 -.471E+01
   0.514E+02 -.434E+02 -.257E+02   -.560E+02 0.468E+02 0.260E+02   0.458E+01 -.336E+01 -.252E+00
   -.515E+02 -.432E+02 -.258E+02   0.561E+02 0.466E+02 0.261E+02   -.459E+01 -.335E+01 -.266E+00
   -.552E+02 0.529E+02 -.131E+02   0.597E+02 -.563E+02 0.131E+02   -.449E+01 0.343E+01 -.639E-02
   0.551E+02 0.530E+02 -.131E+02   -.596E+02 -.564E+02 0.131E+02   0.449E+01 0.343E+01 -.856E-02
   0.552E+02 0.530E+02 0.124E+02   -.597E+02 -.564E+02 -.124E+02   0.449E+01 0.342E+01 -.362E-01
   -.514E+02 -.432E+02 0.261E+02   0.559E+02 0.465E+02 -.264E+02   -.457E+01 -.337E+01 0.279E+00
   0.514E+02 -.432E+02 0.261E+02   -.560E+02 0.465E+02 -.264E+02   0.457E+01 -.337E+01 0.277E+00
   0.569E+02 -.527E+02 0.285E+00   -.613E+02 0.561E+02 -.304E+00   0.446E+01 -.340E+01 0.166E-01
   -.568E+02 -.528E+02 0.342E+00   0.613E+02 0.562E+02 -.366E+00   -.446E+01 -.341E+01 0.220E-01
   -.552E+02 0.530E+02 0.125E+02   0.596E+02 -.564E+02 -.124E+02   -.449E+01 0.342E+01 -.328E-01
 -----------------------------------------------------------------------------------------------
   -.265E-02 -.495E+00 0.145E-01   0.213E-13 -.142E-13 -.142E-13   0.825E-02 0.507E+00 -.127E-01
 
 
 POSITION                                       TOTAL-FORCE (eV/Angst)
 -----------------------------------------------------------------------------------
     11.83493     13.42465     13.72316         0.000174      0.014223     -0.007516
     11.83634     13.44074     16.28261        -0.003706     -0.010026      0.004390
     11.83607     14.29287     17.55321         0.001872     -0.036586      0.013877
     11.83538     14.27276     14.99837         0.000770     -0.031848     -0.022303
     11.83429     14.26210     12.44264         0.006654      0.057407      0.020187
     11.83423     13.63084     11.55105        -0.001053     -0.001232     -0.009243
     11.83415     13.66711     18.44877        -0.000610      0.007714      0.020357
     10.95250     14.93661     17.59344         0.012789      0.012275      0.005738
     12.72133     14.93431     17.59600        -0.016138      0.010836      0.003008
     12.71327     12.78183     16.28264         0.007031      0.000015      0.010845
     10.96001     12.78090     16.28307        -0.005863      0.001546      0.010997
     10.95731     12.76628     13.73140         0.005516     -0.001956     -0.010187
     12.71689     14.90727     12.39679        -0.005023     -0.006093     -0.012517
     10.95171     14.90718     12.39726         0.001953     -0.005553     -0.012091
     10.95725     14.93263     14.99508        -0.000562     -0.003330     -0.002610
     12.71295     14.93343     14.99400        -0.000608     -0.004175     -0.002211
     12.71237     12.76623     13.73068        -0.003198     -0.003215     -0.010721
 -----------------------------------------------------------------------------------
    total drift:                                0.005609      0.012426      0.001825


--------------------------------------------------------------------------------------------------------



  FREE ENERGIE OF THE ION-ELECTRON SYSTEM (eV)
  ---------------------------------------------------
  free  energy   TOTEN  =       -85.04341238 eV

  energy  without entropy=      -85.04341238  energy(sigma->0) =      -85.04341238
 


--------------------------------------------------------------------------------------------------------


 BEEFens 2000 ensemble energies
             -0.265323572708782E+02
             -0.109620624120367E+00
             -0.552604448982235E+01
              0.179717227510275E+02
             -0.922768822463703E+01
             -0.721540739910823E+01
             -0.187736316047354E+02
             -0.391451449753529E+02
             -0.160915567006932E+02
             -0.174061330442593E+02
             -0.137345342239866E+02
              0.110219165425838E+01
              0.791376671745070E+00
              0.476546592477348E+00
              0.143621722773813E+01
              0.196331811140548E+02
             -0.935117753462748E+01
             -0.613950465979396E+01
              0.912825892356017E+01
             -0.467689494399878E+02
              0.222057835018869E+02
             -0.931669605758242E+01
             -0.258988183678796E+01
             -0.434247890317359E+01
             -0.106025319503829E+00
             -0.235429939570292E+01
              0.379397298019466E+02
             -0.801498335194282E+01
             -0.367549588706680E+01
             -0.224400268563056E+02
              0.312058006901260E+02
             -0.388943517824863E+01
             -0.171006468490295E+02
              0.792761558856245E+01
             -0.117471594344741E+01
              0.967219148135393E+01
             -0.865140861601020E+00
              0.156925243935621E+01
              0.142527614308514E+02
             -0.429506506513759E+02
              0.241572662933108E+02
              0.497126842438496E+01
             -0.344260455398876E+01
             -0.126427036051544E+02
              0.540062296797622E+01
             -0.633699319304492E+01
              0.197580298662504E+02
              0.147692791637712E+02
             -0.102025257007712E+02
             -0.119321166711310E+02
             -0.127731554508587E+02
             -0.157949228894153E+02
              0.885296378925256E+01
             -0.215581247253446E+02
              0.606410490780297E+01
              0.252211032977843E+02
              0.289850572423958E+02
              0.141230344595934E+02
              0.764812134419587E+01
              0.129543369746580E+02
              0.389389206514712E+02
              0.822178508761883E+01
             -0.233964899942046E+02
             -0.544984054883605E+01
             -0.121139851297600E+02
              0.261639345311702E+02
             -0.320396620118947E+02
             -0.260739860575019E+02
             -0.133281351981658E+02
             -0.580882543169182E+01
             -0.172805908474624E+02
              0.119724940889678E+02
              0.560103353446027E+01
              0.505084461755399E+01
             -0.168255660097503E+02
             -0.145359249553747E+02
             -0.236198431367105E+02
              0.148163753998332E+02
             -0.132969525388666E+02
              0.132558188207924E+02
             -0.338892941283000E+01
             -0.130776148396678E+02
             -0.220108229381017E+02
             -0.605172574872515E+01
             -0.564666143160628E+01
             -0.573904918226366E+01
              0.176159690654930E+02
              0.306714299428588E+02
             -0.171420314260353E+02
             -0.330522887997335E+02
             -0.828016293228677E+01
              0.463487785263563E+02
             -0.244117426809810E+02
              0.136589346007241E+02
             -0.357181527522172E+01
             -0.264082819368293E+02
              0.116117444392685E+02
              0.141441756645138E+02
             -0.627152423519806E+01
              0.133140841415972E+02
             -0.114224651385873E+02
             -0.229075472705442E+02
              0.399093201477871E+02
              0.185016770714468E+02
              0.110595547483640E+02
              0.427098167219160E+01
              0.762037228359143E+01
              0.345951484370569E+02
             -0.118441728497093E+02
              0.176637157889727E+01
             -0.590979196406093E+02
              0.874292442596592E+01
             -0.286798604082471E+02
              0.552940276018806E+01
              0.880504299237857E+01
             -0.142967338990979E+02
             -0.221837861922940E+02
              0.126536212753922E+01
             -0.128042466248240E+02
              0.165702996010258E+02
             -0.193767203674103E+02
             -0.227471796217750E+01
             -0.156727951802759E+02
             -0.660731027772016E+00
              0.760456442316979E+00
              0.827818469806199E+01
              0.126583501469213E+00
             -0.282165100342033E+01
              0.267577950038314E+02
              0.382692666677078E+02
              0.205917442791909E+02
              0.303383894781266E+02
             -0.598562763486855E+01
              0.298416943221062E+01
              0.220754614786637E+02
             -0.344458446547364E+00
             -0.318444064441791E+02
             -0.179095676802203E+02
             -0.208487299763426E+02
             -0.123219716448643E+02
              0.115468316015513E+02
             -0.496719467506749E+02
             -0.571353810423358E+01
              0.177749986315800E+02
             -0.171397901516272E+02
             -0.135466319203817E+02
              0.228783172745602E+02
              0.196226860129725E+02
             -0.130643424699103E+02
              0.109781019351179E+02
             -0.115272466183424E+02
              0.158781382910081E+02
              0.314752891139241E+01
              0.611882349356668E+01
             -0.355093857129670E+02
             -0.200302244551796E+02
             -0.484220378836937E+01
             -0.181343895241142E+01
             -0.169602755600810E+02
              0.456932482342094E+02
             -0.648224455829734E+01
             -0.134181857985341E+02
              0.173122392708389E+02
             -0.194614725547257E+02
             -0.154953181126152E+02
              0.123623913960540E+02
              0.459500381215316E+01
              0.466923380151920E+01
              0.553230974646745E+01
             -0.506881919525638E+01
              0.577608890616128E+01
              0.248961156811750E+02
             -0.124792512540264E+02
              0.777993756527852E+01
              0.382285686407647E+02
              0.134033272327277E+02
             -0.198179902166549E+01
             -0.748789680603073E+01
              0.639257083481763E+02
             -0.953530106050052E+01
              0.161776247132998E+02
              0.114323200854364E+02
              0.131232926563587E+02
              0.390895448961197E+02
              0.200240782906383E+02
             -0.145437040251504E+01
              0.956777937863421E+01
              0.213141239835074E+02
              0.153989921197108E+02
             -0.251965452235582E+02
              0.395255532043963E+02
             -0.370980449312131E+02
             -0.600220523123192E+01
              0.236331651427480E+02
              0.449760752216767E+01
              0.134603642504374E+01
              0.130372602526461E+02
              0.825487738832359E+01
              0.140048844938833E+02
             -0.258396170318245E+02
              0.112786864294452E+01
             -0.104960615056589E+02
             -0.191487138264209E+01
              0.205056534497032E+00
             -0.489731585385718E+01
             -0.240487209992187E+01
              0.362433522530924E+02
             -0.220870764966043E+01
             -0.123402996845756E+02
             -0.106758718530281E+01
              0.585540561426782E+01
             -0.252822916170189E+02
             -0.201084159536538E+02
             -0.141786610229663E+02
             -0.260856774364759E+02
             -0.710350239509343E+01
             -0.178951363080985E+02
              0.725773259182235E+01
             -0.352541048981735E+00
             -0.558004299365436E+01
             -0.385934058701130E+01
              0.296978850906616E+01
             -0.881081464489866E+01
              0.272251930188183E+02
             -0.361906475750275E+02
             -0.489081858694094E+01
             -0.662068012187596E+01
              0.721939683789495E+01
              0.802164673109719E+01
             -0.199562996129032E+02
             -0.623595235327308E+01
              0.191935682120098E+02
             -0.103372534903703E+02
              0.600471233130401E+01
              0.153337595807576E+02
              0.322695700879194E-02
              0.478356834736080E+02
             -0.620455027245842E+01
             -0.152617629827197E+02
              0.504398577782467E+00
             -0.117935573897003E+02
              0.211666168146076E+02
             -0.188244325588187E+02
              0.579260457308777E+01
              0.221065896019465E+02
             -0.617380166455504E+01
              0.493697584222466E+02
              0.530759380303396E+02
             -0.297487534272801E+02
              0.242978874532364E+02
              0.846136825623284E+01
             -0.226220953208060E+02
              0.913785311225139E+01
              0.172283742743585E+02
              0.180434173015253E+02
              0.131812862461634E+01
              0.812529448365950E+01
              0.306968497187912E+02
             -0.993963705651396E+01
              0.463612503051668E+01
              0.284239503063361E+02
             -0.147132520729528E+02
             -0.832176291280913E+01
              0.239914376576397E+02
              0.129305541521089E+02
              0.320755663628129E+02
              0.125478715467773E+02
              0.534528424242734E+01
              0.104967812777207E+02
[...]
  343        fft3d_mpi                            29.201056                         1133   3
  344          fftbrc_mpi                           27.155804                       1133   4
  345            fftbas_plan_mpi                      27.152285                     1133   5
  346              dfftw_execute                         6.945200                   3399   6
  347              map_forward                          11.007869                   1138   6
  348                map_gather                            0.980804                  574   7
  349                m_alltoallv_z                         6.301547                  574   7
  350                map_scatter                           3.705867                  574   7
  351              map_backward                          8.271456                   1128   6
  352                map_gather                            2.117959                  564   7
  353                m_alltoallv_z                         4.969316                  564   7
  354                map_scatter                           1.166096                  564   7
  355        ggaall_grid                           5.504312                          101   3
  356        m_sumb_d                              0.369398                          510   3
  357        pothar                                0.022419                            5   3
  358          m_sumb_d                              0.007223                          5   4
  359        m_bcast_d                             0.077929                            5   3
  360      potlok_metagga                        0.000049                              5   2
  361      set_dd_magatom                        0.000003                              3   2
  362      set_dd_paw                            0.038330                              5   2
  363        set_rsgf_all                          0.000046                            5   3
  364        m_sumb_d                              0.037294                           35   3
  365      wavpre_noio                           0.110874                              2   2
  366        stufak                                0.066873                            2   3
  367      eddiag                                0.483394                              2   2
  368        overl                                 0.000025                            2   3
  369        redis_proj                            0.003025                            6   3
  370          m_alltoall_d                          0.002943                          6   4
  371        fftwav_mpi                            0.225257                            2   3
  372          fft3d_mpi                             0.172487                          2   4
  373            fftbrc_mpi                            0.128806                        2   5
  374              fftbas_plan_mpi                       0.128801                      2   6
  375                dfftw_execute                         0.057150                    6   7
  376                map_forward                           0.069811                    4   7
  377                  map_gather                            0.016387                  2   8
  378                  m_alltoallv_z                         0.011334                  2   8
  379                  map_scatter                           0.016691                  2   8
  380        hamilt_local                          0.183666                            2   3
  381          vhamil                                0.054478                          2   4
  382          kinhamil                              0.129150                          2   4
  383            fftext_mpi                            0.127796                        2   5
  384              fft3d_mpi                             0.125164                      2   6
  385                fftbrc_mpi                            0.099319                    2   7
  386                  fftbas_plan_mpi                       0.099313                  2   8
  387                    dfftw_execute                         0.076219                6   9
  388                    map_backward                          0.021666                4   9
  389                      map_gather                            0.011724              2  10
  390                      m_alltoallv_z                         0.003706              2  10
  391                      map_scatter                           0.006184              2  10
  392        redis_pw                              0.053673                            6   3
  393          m_alltoall_d                          0.045978                          6   4
  394        orth1                                 0.002375                            2   3
  395        m_sumb_d                              0.000891                            2   3
  396        shift_bands_between_low_high          0.000003                            2   3
  397        lincom                                0.004075                            2   3
  398      set_charge                            0.506898                              2   2
  399        soft_charge                           0.442747                            2   3
  400          fftwav_mpi                            0.168948                          2   4
  401            fft3d_mpi                             0.139810                        2   5
  402              fftbrc_mpi                            0.114359                      2   6
  403                fftbas_plan_mpi                       0.114352                    2   7
  404                  dfftw_execute                         0.050790                  6   8
  405                  map_forward                           0.061332                  4   8
  406                    map_gather                            0.017871                2   9
  407                    m_alltoallv_z                         0.006646                2   9
  408                    map_scatter                           0.016657                2   9
  409          pw_charge                             0.024979                          2   4
  410          m_sumb_d                              0.119576                          2   4
  411          fft_gq                                0.039331                          2   4
  412            fft3d_mpi                             0.036366                        2   5
  413              fftbrc_mpi                            0.030945                      2   6
  414                fftbas_plan_mpi                       0.030939                    2   7
  415                  dfftw_execute                         0.012819                  6   8
  416                  map_backward                          0.016767                  4   8
  417                    map_gather                            0.007490                4   9
  418                    m_alltoallv_z                         0.008480                4   9
  419                    map_scatter                           0.000728                4   9
  420        depsum                                0.000830                            2   3
  421          m_sumb_d                              0.000777                          2   4
  422        augmentation_charge                   0.058576                            2   3
  423          m_sumb_d                              0.000316                          2   4
  424          fft3d_mpi                             0.044019                          2   4
  425            fftbrc_mpi                            0.041236                        2   5
  426              fftbas_plan_mpi                       0.041227                      2   6
  427                dfftw_execute                         0.012925                    6   7
  428                map_backward                          0.026728                    4   7
  429                  map_gather                            0.008284                  2   8
  430                  m_alltoallv_z                         0.014303                  2   8
  431                  map_scatter                           0.004072                  2   8
 
 Flat profile
 ============
 
             routine name                   CPU           calls
 ---------------------------------------------------------------
 potlok                                360.164976          56
 m_alltoallv_z                          61.406996        5572
 dfftw_execute                          41.052494       16389
 map_scatter                            24.447277        5572
 total_time                             24.175925           1
 force_and_stress                       18.983206           3
 ggaall_grid                            18.247938         155
 map_gather                             16.264977        5572
 fft3d_mpi                              14.633517        5463
 m_sumb_d                                5.750552        2912
 fftbas_plan_mpi                         4.555806        5463
 fftwav_mpi                              4.019396         209
 map_forward                             2.822892        5546
 m_alltoall_d                            2.492253        1047
 edwav                                   1.797863          50
 eccp                                    1.560257         105
 vhamil                                  1.405132          51
 soft_charge                             1.210554          53
 elmin_all                               1.070070           3
 m_bcast_d                               0.993170         132
 pw_charge                               0.588593          53
 m_bcast_z                               0.525869          49
 redis_pw                                0.396597         314
 augmentation_charge                     0.377649          53
 lapack                                  0.338525          21
 rspher_all                              0.333225          40
 lincom                                  0.317627         158
 orth1                                   0.259737         141
 pothar                                  0.190208          56
 forloc                                  0.170368           3
 w1_dscal                                0.168665          25
 eddav                                   0.137616           5
 set_charge                              0.122759          53
 fftext_mpi                              0.122643          76
 stufak                                  0.106277           3
 map_backward                            0.093104        5380
 w1_copy                                 0.080656          63
 fft_gq                                  0.075124          53
 setdij_                                 0.072982         135
 brgrid                                  0.063688           1
 ggemm                                   0.057144          21
 forhar                                  0.052691           3
 wavpre_noio                             0.044001           2
 inisym                                  0.043006           1
 strelo                                  0.041425           3
 eddiag                                  0.030564          30
 strehar                                 0.026145           3
 apply_precond                           0.022731          16
 racc0                                   0.022204          46
 rpro1                                   0.020523          41
 kinhamil                                0.020140          51
 choleski                                0.018825          53
 fftbrc_mpi                              0.018253        5463
 redis_proj                              0.013269         733
 rpromu_gemm                             0.012040         663
 rpromu                                  0.011996          39
 rpro_isp                                0.010562          39
 set_dd_paw                              0.009801          59
 setup_precond                           0.005944           5
 fewald                                  0.005154           3
 densta                                  0.004857          64
 overl                                   0.004402         170
 orthch                                  0.004285          53
 strkin                                  0.003789           3
 rsp                                     0.003187           3
 strnlr                                  0.001851           3
 depsum                                  0.001516          53
 newband                                 0.000742          26
 overl1                                  0.000622          21
 redis_pw_all                            0.000576          50
 hamiltmu                                0.000567          21
 fornlr                                  0.000528           3
 hamilt_local                            0.000503          30
 potlok_metagga                          0.000348          56
 raccmu_                                 0.000339          21
 rcp                                     0.000332           3
 crpa_reader                             0.000264           1
 fordep                                  0.000202           3
 redis_pw_over_bands                     0.000190          55
 set_rsgf_all                            0.000150          59
 w1_projall                              0.000092          16
 proall                                  0.000047           3
 phaser                                  0.000042          69
 rotate_active_occupied_orbital          0.000040           3
 truncate_high_frequency_w1              0.000027          26
 vectorpot                               0.000023           1
 posmap                                  0.000022           2
 set_dd_magatom                          0.000014           6
 shift_bands_between_low_high            0.000007           5
 ---------------------------------------------------------------
  summed up times    612.113142013550     
 
 Accumulative profile
 ====================
 
             routine name                   CPU           calls
 ---------------------------------------------------------------
 total_time                            612.113142           1
 potlok                                514.888631          56
 elmin_all                             483.765158           3
 fft3d_mpi                             165.295316        5463
 fftbrc_mpi                            150.661799        5463
 fftbas_plan_mpi                       150.643546        5463
 map_forward                            64.872612        5546
 m_alltoallv_z                          61.406996        5572
 dfftw_execute                          41.052494       16389
 map_backward                           40.162634        5380
 force_and_stress                       29.823353           3
 map_scatter                            24.447277        5572
 fftwav_mpi                             21.679347         209
 ggaall_grid                            18.247938         155
 map_gather                             16.264977        5572
 edwav                                  15.323023          50
 set_charge                             12.973461          53
 soft_charge                            11.246786          53
 eddav                                   7.435570           5
 m_sumb_d                                5.750552        2912
 fftext_mpi                              4.926193          76
 eddiag                                  4.049903          30
 rpro_isp                                3.866985          39
 kinhamil                                3.330727          51
 hamilt_local                            2.810827          30
 strnlr                                  2.734444           3
 m_alltoall_d                            2.492253        1047
 redis_pw                                2.104513         314
 hamiltmu                                1.943959          21
 eccp                                    1.581214         105
 augmentation_charge                     1.578811          53
 vhamil                                  1.405132          51
 fornlr                                  1.168067           3
 fft_gq                                  1.127074          53
 m_bcast_d                               0.993170         132
 redis_proj                              0.797606         733
 newband                                 0.638330          26
 pw_charge                               0.588593          53
 m_bcast_z                               0.525869          49
 set_dd_paw                              0.490924          59
 orthch                                  0.446542          53
 proall                                  0.342859           3
 redis_pw_over_bands                     0.342641          55
 redis_pw_all                            0.342451          50
 lapack                                  0.338525          21
 rspher_all                              0.333225          40
 lincom                                  0.317627         158
 pothar                                  0.267018          56
 orth1                                   0.259737         141
 forloc                                  0.171427           3
 w1_dscal                                0.168665          25
 setdij_                                 0.159376         135
 densta                                  0.131590          64
 wavpre_noio                             0.110874           2
 stufak                                  0.106277           3
 w1_copy                                 0.080656          63
 brgrid                                  0.063688           1
 strelo                                  0.058977           3
 forhar                                  0.057611           3
 ggemm                                   0.057144          21
 racc0                                   0.053715          46
 inisym                                  0.043028           1
 rpromu                                  0.033600          39
 rpro1                                   0.031522          41
 strehar                                 0.030421           3
 depsum                                  0.025105          53
 apply_precond                           0.022731          16
 choleski                                0.018825          53
 raccmu_                                 0.017856          21
 fewald                                  0.015118           3
 fordep                                  0.013253           3
 w1_projall                              0.012708          16
 rpromu_gemm                             0.012040         663
 setup_precond                           0.006217           5
 strkin                                  0.004703           3
 overl                                   0.004402         170
 rsp                                     0.003187           3
 overl1                                  0.000622          21
 potlok_metagga                          0.000348          56
 rcp                                     0.000332           3
 crpa_reader                             0.000264           1
 set_rsgf_all                            0.000150          59
 phaser                                  0.000042          69
 rotate_active_occupied_orbital          0.000040           3
 truncate_high_frequency_w1              0.000027          26
 vectorpot                               0.000023           1
 posmap                                  0.000022           2
 set_dd_magatom                          0.000014           6
 shift_bands_between_low_high            0.000007           5
 ---------------------------------------------------------------
 
Profiling took   0.133857  0.054410  0.015959  0.014792 seconds
Profiling took   0.222794 seconds
