 vasp.6.3.2 27Jun22 (build Jan 03 2024 23:25:20) gamma-only                     
  
 executed on           IFC15_impi date 2024.06.04  04:40:46
 running  192 mpi-ranks, with    1 threads/rank
 distrk:  each k-point on  192 cores,    1 groups
 distr:  one band on NCORE=   4 cores,   48 groups


--------------------------------------------------------------------------------------------------------


 INCAR:
   ENCUT = 500.000000
   SIGMA = 0.010000
   EDIFF = 1.00e-05
   ALGO = A
   ISMEAR = 0
   NELM = 200
   NSW = 500
   NCORE = 4
   LCHARG = .FALSE.
   LWAVE = .FALSE.
   LREAL = Auto
   IBRION = 2
   EDIFFG = -0.05
   GGA = BF
   LUSE_VDW = .TRUE.
   ZAB_VDW = -1.8867
   LBEEFENS = .TRUE.

 POTCAR:    PAW_PBE C 08Apr2002                   
 POTCAR:    PAW_PBE H 15Jun2001                   
 -----------------------------------------------------------------------------
|                                                                             |
|               ----> ADVICE to this user running VASP <----                  |
|                                                                             |
|     You have switched on vdW-DFT.                                           |
|     This routine was written and supplied by Jiri Klimes. We recommend      |
|     that you carefully read and cite the following publications:            |
|       J. Klimes, D.R. Bowler, A. Michelides                                 |
|          J. Phys.: Cond Matt. 22 022201 (2010)                              |
|       J. Klimes, D.R. Bowler, A. Michelides                                 |
|          Phys. Rev. B. 83, 195131 (2011)                                    |
|     and references therein.                                                 |
|                                                                             |
 -----------------------------------------------------------------------------

 POTCAR:    PAW_PBE C 08Apr2002                   
   SHA256 =  253f7b50bb8d59471dbedb8285d89021f4a42ed1a2c5d38a03a736e69125dd95 C/POTCAR              
   COPYR  = (c) Copyright 08Apr2002 Georg Kresse                                                    
   COPYR  = This file is part of the software VASP. Any use, copying, and all other rights are regul
   COPYR  = If you do not have a valid VASP license, you may not use, copy or distribute this file. 
   VRHFIN =C: s2p2                                                                                  
   LEXCH  = PE                                                                                      
   EATOM  =   147.1560 eV,   10.8157 Ry                                                             
                                                                                                    
   TITEL  = PAW_PBE C 08Apr2002                                                                     
   LULTRA =        F    use ultrasoft PP ?                                                          
   IUNSCR =        1    unscreen: 0-lin 1-nonlin 2-no                                               
   RPACOR =    1.200    partial core radius                                                         
   POMASS =   12.011; ZVAL   =    4.000    mass and valenz                                          
   RCORE  =    1.500    outmost cutoff radius                                                       
   RWIGS  =    1.630; RWIGS  =    0.863    wigner-seitz radius (au A)                               
   ENMAX  =  400.000; ENMIN  =  300.000 eV                                                          
   ICORE  =        2    local potential                                                             
   LCOR   =        T    correct aug charges                                                         
   LPAW   =        T    paw PP                                                                      
   EAUG   =  644.873                                                                                
   DEXC   =    0.000                                                                                
   RMAX   =    1.529    core radius for proj-oper                                                   
   RAUG   =    1.300    factor for augmentation sphere                                              
   RDEP   =    1.501    radius for radial grids                                                     
   RDEPT  =    1.300    core radius for aug-charge                                                  
                                                                                                    
   Atomic configuration                                                                             
    4 entries                                                                                       
     n  l   j            E        occ.                                                              
     1  0  0.50      -273.3789   2.0000                                                             
     2  0  0.50       -13.7508   2.0000                                                             
     2  1  0.50        -5.2854   2.0000                                                             
     3  2  1.50        -5.4423   0.0000                                                             
   Description                                                                                      
     l       E           TYP  RCUT    TYP  RCUT                                                     
     0    -13.7508458     23  1.200                                                                 
     0     -8.2022199     23  1.200                                                                 
     1     -5.2854383     23  1.500                                                                 
     1     34.0145650     23  1.500                                                                 
     2     -5.4423304      7  1.500                                                                 
  local pseudopotential read in
  partial core-charges read in
  partial kinetic energy density read in
  atomic valenz-charges read in
  non local Contribution for L=           0  read in
    real space projection operators read in
  non local Contribution for L=           0  read in
    real space projection operators read in
  non local Contribution for L=           1  read in
    real space projection operators read in
  non local Contribution for L=           1  read in
    real space projection operators read in
    PAW grid and wavefunctions read in
 
   number of l-projection  operators is LMAX  =           4
   number of lm-projection operators is LMMAX =           8
 
 POTCAR:    PAW_PBE H 15Jun2001                   
   SHA256 =  030f79b5d3ab3cf0e668861823c8fb652ff669f3e15e46930bd03bfd63a607b6 H/POTCAR              
   COPYR  = (c) Copyright 15Jun2001 Georg Kresse                                                    
   COPYR  = This file is part of the software VASP. Any use, copying, and all other rights are regul
   COPYR  = If you do not have a valid VASP license, you may not use, copy or distribute this file. 
   VRHFIN =H: ultrasoft test                                                                        
   LEXCH  = PE                                                                                      
   EATOM  =    12.4884 eV,    0.9179 Ry                                                             
                                                                                                    
   TITEL  = PAW_PBE H 15Jun2001                                                                     
   LULTRA =        F    use ultrasoft PP ?                                                          
   IUNSCR =        0    unscreen: 0-lin 1-nonlin 2-no                                               
   RPACOR =    0.000    partial core radius                                                         
   POMASS =    1.000; ZVAL   =    1.000    mass and valenz                                          
   RCORE  =    1.100    outmost cutoff radius                                                       
   RWIGS  =    0.700; RWIGS  =    0.370    wigner-seitz radius (au A)                               
   ENMAX  =  250.000; ENMIN  =  200.000 eV                                                          
   RCLOC  =    0.701    cutoff for local pot                                                        
   LCOR   =        T    correct aug charges                                                         
   LPAW   =        T    paw PP                                                                      
   EAUG   =  400.000                                                                                
   RMAX   =    1.123    core radius for proj-oper                                                   
   RAUG   =    1.200    factor for augmentation sphere                                              
   RDEP   =    1.112    radius for radial grids                                                     
   RDEPT  =    0.926    core radius for aug-charge                                                  
                                                                                                    
   Atomic configuration                                                                             
    2 entries                                                                                       
     n  l   j            E        occ.                                                              
     1  0  0.50        -6.4927   1.0000                                                             
     2  1  0.50        -3.4015   0.0000                                                             
   Description                                                                                      
     l       E           TYP  RCUT    TYP  RCUT                                                     
     0     -6.4927494     23  1.100                                                                 
     0      6.8029130     23  1.100                                                                 
     1     -4.0817478     23  1.100                                                                 
  local pseudopotential read in
  atomic valenz-charges read in
  non local Contribution for L=           0  read in
    real space projection operators read in
  non local Contribution for L=           0  read in
    real space projection operators read in
  non local Contribution for L=           1  read in
    real space projection operators read in
    PAW grid and wavefunctions read in
 
   number of l-projection  operators is LMAX  =           3
   number of lm-projection operators is LMMAX =           5
 
 Optimization of the real space projectors (new method)

 maximal supplied QI-value         = 25.13
 optimisation between [QCUT,QGAM] = [ 11.31, 22.87] = [ 35.82,146.48] Ry 
 Optimized for a Real-space Cutoff    1.00 Angstroem

   l    n(q)    QCUT    max X(q) W(low)/X(q) W(high)/X(q)  e(spline) 
   0      7    11.310   115.676    0.43E-03    0.13E-02    0.19E-06
   0      7    11.310    87.132    0.43E-03    0.13E-02    0.18E-06
   1      6    11.310     4.429    0.42E-03    0.74E-03    0.11E-06
   1      6    11.310     2.733    0.34E-03    0.55E-03    0.92E-07
 Optimization of the real space projectors (new method)

 maximal supplied QI-value         = 34.20
 optimisation between [QCUT,QGAM] = [ 11.29, 22.57] = [ 35.68,142.71] Ry 
 Optimized for a Real-space Cutoff    1.16 Angstroem

   l    n(q)    QCUT    max X(q) W(low)/X(q) W(high)/X(q)  e(spline) 
   0      8    11.287    19.460    0.40E-03    0.73E-03    0.16E-06
   0      8    11.287    12.209    0.38E-03    0.70E-03    0.15E-06
   1      7    11.287     4.655    0.22E-03    0.25E-04    0.22E-06
 -----------------------------------------------------------------------------
|                                                                             |
|               ----> ADVICE to this user running VASP <----                  |
|                                                                             |
|     You enforced a specific xc type in the INCAR file but a different       |
|     type was found in the POTCAR file.                                      |
|     I HOPE YOU KNOW WHAT YOU ARE DOING!                                     |
|                                                                             |
 -----------------------------------------------------------------------------

  PAW_PBE C 08Apr2002                   :
 energy of atom  1       EATOM= -147.1560
 kinetic energy error for atom=    0.0076 (will be added to EATOM!!)
  PAW_PBE H 15Jun2001                   :
 energy of atom  2       EATOM=  -12.4884
 kinetic energy error for atom=    0.0020 (will be added to EATOM!!)
 
 
 POSCAR: C  H
  positions in cartesian coordinates
  No initial velocities read in
 exchange correlation table for  LEXCH =       17
   RHO(1)=    0.500       N(1)  =     2000
   RHO(2)=  100.500       N(2)  =     4000

 VTST: version 4.1, (05/19/21)

 CHAIN: initializing optimizer
 
 OPT: Using VASP Conjugate-Gradient optimizer
 CHAIN: Read ICHAIN            0
 
 POSCAR: C  H
  positions in cartesian coordinates
  No initial velocities read in
 


--------------------------------------------------------------------------------------------------------


 ion  position               nearest neighbor table
   1  0.500  0.485  0.479-   9 1.10  14 1.10   4 1.53   3 1.53
   2  0.500  0.486  0.564-   6 1.09   7 1.09   8 1.09   3 1.53
   3  0.500  0.515  0.521-  13 1.10  12 1.10   2 1.53   1 1.53
   4  0.500  0.514  0.436-   5 1.09  11 1.09  10 1.09   1 1.53
   5  0.500  0.492  0.406-   4 1.09
   6  0.500  0.509  0.594-   2 1.09
   7  0.537  0.463  0.566-   2 1.09
   8  0.463  0.463  0.566-   2 1.09
   9  0.463  0.461  0.479-   1 1.10
  10  0.537  0.538  0.435-   4 1.09
  11  0.463  0.538  0.435-   4 1.09
  12  0.463  0.539  0.521-   3 1.10
  13  0.537  0.539  0.521-   3 1.10
  14  0.537  0.461  0.479-   1 1.10
 
  LATTYP: Found a simple orthorhombic cell.
 ALAT       =    23.6707801819
 B/A-ratio  =     1.1785113316
 C/A-ratio  =     1.2673853489
  
  Lattice vectors:
  
 A1 = (  23.6707801819,   0.0000000000,   0.0000000000)
 A2 = (   0.0000000000,  27.8962826733,   0.0000000000)
 A3 = (   0.0000000000,   0.0000000000,  30.0000000000)


Analysis of symmetry for initial positions (statically):
=====================================================================
 Subroutine PRICEL returns:
 Original cell was already a primitive cell.
 

 Routine SETGRP: Setting up the symmetry group for a 
 simple orthorhombic supercell.


 Subroutine GETGRP returns: Found  1 space group operations
 (whereof  1 operations were pure point group operations)
 out of a pool of  8 trial point group operations.


The static configuration has the point symmetry C_1 .


Analysis of symmetry for dynamics (positions and initial velocities):
=====================================================================
 Subroutine PRICEL returns:
 Original cell was already a primitive cell.
 

 Routine SETGRP: Setting up the symmetry group for a 
 simple orthorhombic supercell.


 Subroutine GETGRP returns: Found  1 space group operations
 (whereof  1 operations were pure point group operations)
 out of a pool of  8 trial point group operations.


The dynamic configuration has the point symmetry C_1 .


 Subroutine INISYM returns: Found  1 space group operations
 (whereof  1 operations are pure point group operations),
 and found     1 'primitive' translations


----------------------------------------------------------------------------------------

                                     Primitive cell                                     

  volume of cell :   19809.8033

  direct lattice vectors                    reciprocal lattice vectors
    23.670780182  0.000000000  0.000000000     0.042246178  0.000000000  0.000000000
     0.000000000 27.896282673  0.000000000     0.000000000  0.035847070  0.000000000
     0.000000000  0.000000000 30.000000000     0.000000000  0.000000000  0.033333333

  length of vectors
    23.670780182 27.896282673 30.000000000     0.042246178  0.035847070  0.033333333

  position of ions in fractional coordinates (direct lattice)
     0.499993070  0.484522684  0.478744396
     0.500025256  0.485711128  0.564087327
     0.500003680  0.515212881  0.521078116
     0.499977845  0.514483563  0.436060840
     0.499974767  0.491965893  0.406267027
     0.499963327  0.508768797  0.593540487
     0.537418005  0.462727324  0.565943053
     0.462706311  0.462636206  0.565895206
     0.462950150  0.460930519  0.479122907
     0.537228275  0.537592150  0.434594654
     0.462725244  0.537590568  0.434607906
     0.462947169  0.538837108  0.520641104
     0.537048200  0.538850364  0.520628892
     0.537040331  0.460932107  0.479108141

  ion indices of the primitive-cell ions
   primitive index   ion index
                 1           1
                 2           2
                 3           3
                 4           4
                 5           5
                 6           6
                 7           7
                 8           8
                 9           9
                10          10
                11          11
                12          12
                13          13
                14          14

----------------------------------------------------------------------------------------

 
 
 KPOINTS: KPOINTS created by Atomic Simulation Env

Automatic generation of k-mesh.
 Grid dimensions read from file:
 generate k-points for:    1    1    1

 Generating k-lattice:

  Cartesian coordinates                     Fractional coordinates (reciprocal lattice)
     0.042246178  0.000000000  0.000000000     1.000000000  0.000000000  0.000000000
     0.000000000  0.035847070  0.000000000     0.000000000  1.000000000  0.000000000
     0.000000000  0.000000000  0.033333333     0.000000000  0.000000000  1.000000000

  Length of vectors
     0.042246178  0.035847070  0.033333333

  Shift w.r.t. Gamma in fractional coordinates (k-lattice)
     0.000000000  0.000000000  0.000000000

 
 Subroutine IBZKPT returns following result:
 ===========================================
 
 Found      1 irreducible k-points:
 
 Following reciprocal coordinates:
            Coordinates               Weight
  0.000000  0.000000  0.000000      1.000000
 
 Following cartesian coordinates:
            Coordinates               Weight
  0.000000  0.000000  0.000000      1.000000
 


--------------------------------------------------------------------------------------------------------




 Dimension of arrays:
   k-points           NKPTS =      1   k-points in BZ     NKDIM =      1   number of bands    NBANDS=     48
   number of dos      NEDOS =    301   number of ions     NIONS =     14
   non local maximal  LDIM  =      4   non local SUM 2l+1 LMDIM =      8
   total plane-waves  NPLWV = ******
   max r-space proj   IRMAX =   1304   max aug-charges    IRDMAX=   2441
   dimension x,y,z NGX =   140 NGY =  160 NGZ =  168
   dimension x,y,z NGXF=   280 NGYF=  320 NGZF=  336
   support grid    NGXF=   280 NGYF=  320 NGZF=  336
   ions per type =               4  10
   NGX,Y,Z   is equivalent  to a cutoff of   9.83,  9.54,  9.31 a.u.
   NGXF,Y,Z  is equivalent  to a cutoff of  19.67, 19.07, 18.62 a.u.

 SYSTEM =  unknown system                          
 POSCAR =  C  H                                    

 Startparameter for this run:
   NWRITE =      2    write-flag & timer
   PREC   = normal    normal or accurate (medium, high low for compatibility)
   ISTART =      0    job   : 0-new  1-cont  2-samecut
   ICHARG =      2    charge: 1-file 2-atom 10-const
   ISPIN  =      1    spin polarized calculation?
   LNONCOLLINEAR =      F non collinear calculations
   LSORBIT =      F    spin-orbit coupling
   INIWAV =      1    electr: 0-lowe 1-rand  2-diag
   LASPH  =      F    aspherical Exc in radial PAW
 Electronic Relaxation 1
   ENCUT  =  500.0 eV  36.75 Ry    6.06 a.u.  43.16 50.86 54.70*2*pi/ulx,y,z
   ENINI  =  500.0     initial cutoff
   ENAUG  =  644.9 eV  augmentation charge cutoff
   NELM   =    200;   NELMIN=  2; NELMDL= -5     # of ELM steps 
   EDIFF  = 0.1E-04   stopping-criterion for ELM
   LREAL  =      T    real-space projection
   NLSPLINE    = F    spline interpolate recip. space projectors
   LCOMPAT=      F    compatible to vasp.4.4
   GGA_COMPAT  = T    GGA compatible to vasp.4.4-vasp.4.6
   LMAXPAW     = -100 max onsite density
   LMAXMIX     =    2 max onsite mixed and CHGCAR
   VOSKOWN=      0    Vosko Wilk Nusair interpolation
   ROPT   =   -0.00050  -0.00050
 Ionic relaxation
   EDIFFG = -.5E-01   stopping-criterion for IOM
   NSW    =    500    number of steps for IOM
   NBLOCK =      1;   KBLOCK =    500    inner block; outer block 
   IBRION =      2    ionic relax: 0-MD 1-quasi-New 2-CG
   NFREE  =      1    steps in history (QN), initial steepest desc. (CG)
   ISIF   =      2    stress and relaxation
   IWAVPR =     11    prediction:  0-non 1-charg 2-wave 3-comb
   ISYM   =      2    0-nonsym 1-usesym 2-fastsym
   LCORR  =      T    Harris-Foulkes like correction to forces

   POTIM  = 0.5000    time-step for ionic-motion
   TEIN   =    0.0    initial temperature
   TEBEG  =    0.0;   TEEND  =   0.0 temperature during run
   SMASS  =  -3.00    Nose mass-parameter (am)
   estimated Nose-frequenzy (Omega)   =  0.10E-29 period in steps = 0.13E+47 mass=  -0.128E-25a.u.
   SCALEE = 1.0000    scale energy and forces
   NPACO  =    256;   APACO  = 10.0  distance and # of slots for P.C.
   PSTRESS=    0.0 pullay stress

  Mass of Ions in am
   POMASS =  12.01  1.00
  Ionic Valenz
   ZVAL   =   4.00  1.00
  Atomic Wigner-Seitz radii
   RWIGS  =  -1.00 -1.00
  virtual crystal weights 
   VCA    =   1.00  1.00
   NELECT =      26.0000    total number of electrons
   NUPDOWN=      -1.0000    fix difference up-down

 DOS related values:
   EMIN   =  10.00;   EMAX   =-10.00  energy-range for DOS
   EFERMI =   0.00
   ISMEAR =     0;   SIGMA  =   0.01  broadening in eV -4-tet -1-fermi 0-gaus

 Electronic relaxation 2 (details)
   IALGO  =     58    algorithm
   LDIAG  =      T    sub-space diagonalisation (order eigenvalues)
   LSUBROT=      F    optimize rotation matrix (better conditioning)
   TURBO    =      0    0=normal 1=particle mesh
   IRESTART =      0    0=no restart 2=restart with 2 vectors
   NREBOOT  =      0    no. of reboots
   NMIN     =      0    reboot dimension
   EREF     =   0.00    reference energy to select bands
   IMIX   =      4    mixing-type and parameters
     AMIX     =   0.40;   BMIX     =  1.00
     AMIX_MAG =   1.60;   BMIX_MAG =  1.00
     AMIN     =   0.10
     WC   =   100.;   INIMIX=   1;  MIXPRE=   1;  MAXMIX= -45

 Intra band minimization:
   WEIMIN = 0.0010     energy-eigenvalue tresh-hold
   EBREAK =  0.52E-07  absolut break condition
   DEPER  =   0.30     relativ break condition  

   TIME   =   0.40     timestep for ELM

  volume/ion in A,a.u.               =    1414.99      9548.80
  Fermi-wavevector in a.u.,A,eV,Ry     =   0.179242  0.338718  0.437123  0.032128
  Thomas-Fermi vector in A             =   0.902762
 
 Write flags
   LWAVE        =      F    write WAVECAR
   LDOWNSAMPLE  =      F    k-point downsampling of WAVECAR
   LCHARG       =      F    write CHGCAR
   LVTOT        =      F    write LOCPOT, total local potential
   LVHAR        =      F    write LOCPOT, Hartree potential only
   LELF         =      F    write electronic localiz. function (ELF)
   LORBIT       =      0    0 simple, 1 ext, 2 COOP (PROOUT), +10 PAW based schemes


 Dipole corrections
   LMONO  =      F    monopole corrections only (constant potential shift)
   LDIPOL =      F    correct potential (dipole corrections)
   IDIPOL =      0    1-x, 2-y, 3-z, 4-all directions 
   EPSILON=  1.0000000 bulk dielectric constant

 Exchange correlation treatment:
   GGA     =    BF    GGA type
   LEXCH   =    17    internal setting for exchange type
   LIBXC   =     F    Libxc                    
   VOSKOWN =     0    Vosko Wilk Nusair interpolation
   LHFCALC =     F    Hartree Fock is set to
   LHFONE  =     F    Hartree Fock one center treatment
   AEXX    =    0.0000 exact exchange contribution

 vdW DFT:
   LUSE_VDW   =     T    switch on vdW DFT
   Zab_VDW    =******    correlation parameter
   PARAM1     =0.1234
   PARAM2     =1.0000
   PARAM3     =0.0000
   -- rVV10 --
   BPARAM     = 6.3000
   CPARAM     = 0.0093

 Linear response parameters
   LEPSILON=     F    determine dielectric tensor
   LRPA    =     F    only Hartree local field effects (RPA)
   LNABLA  =     F    use nabla operator in PAW spheres
   LVEL    =     F    velocity operator in full k-point grid
   CSHIFT  =0.1000    complex shift for real part using Kramers Kronig
   OMEGAMAX=  -1.0    maximum frequency
   DEG_THRESHOLD= 0.2000000E-02 threshold for treating states as degnerate
   RTIME   =   -0.100 relaxation time in fs
  (WPLASMAI=    0.000 imaginary part of plasma frequency in eV, 0.658/RTIME)
   DFIELD  = 0.0000000 0.0000000 0.0000000 field for delta impulse in time
 
  Optional k-point grid parameters
   LKPOINTS_OPT  =     F    use optional k-point grid
   KPOINTS_OPT_MODE=     1    mode for optional k-point grid
 
 Orbital magnetization related:
   ORBITALMAG=     F  switch on orbital magnetization
   LCHIMAG   =     F  perturbation theory with respect to B field
   DQ        =  0.001000  dq finite difference perturbation B field
   LLRAUG    =     F  two centre corrections for induced B field



--------------------------------------------------------------------------------------------------------


 conjugate gradient relaxation of ions
 charge density and potential will be updated during run
 non-spin polarized calculation
 Conjugate gradient for all bands (Freysoldt, et al. PRB 79, 241103 (2009))
 preconditioned conjugated gradient                                        
 perform sub-space diagonalisation
    before iterative eigenvector-optimisation
 modified Broyden-mixing scheme, WC =      100.0
 initial mixing is a Kerker type mixing with AMIX =  0.4000 and BMIX =      1.0000
 Hartree-type preconditioning will be used
 using additional bands           35
 real space projection scheme for non local part
 use partial core corrections
 no Harris-corrections to forces 
 use gradient corrections 
 use of overlap-Matrix (Vanderbilt PP)
 Gauss-broadening in eV      SIGMA  =   0.01


--------------------------------------------------------------------------------------------------------


  energy-cutoff  :      500.00
  volume of cell :    19809.80
      direct lattice vectors                 reciprocal lattice vectors
    23.670780182  0.000000000  0.000000000     0.042246178  0.000000000  0.000000000
     0.000000000 27.896282673  0.000000000     0.000000000  0.035847070  0.000000000
     0.000000000  0.000000000 30.000000000     0.000000000  0.000000000  0.033333333

  length of vectors
    23.670780182 27.896282673 30.000000000     0.042246178  0.035847070  0.033333333


 
 k-points in units of 2pi/SCALE and weight: KPOINTS created by Atomic Simulation Env
   0.00000000  0.00000000  0.00000000       1.000
 
 k-points in reciprocal lattice and weights: KPOINTS created by Atomic Simulation Env
   0.00000000  0.00000000  0.00000000       1.000
 
 position of ions in fractional coordinates (direct lattice) 
   0.49999307  0.48452268  0.47874440
   0.50002526  0.48571113  0.56408733
   0.50000368  0.51521288  0.52107812
   0.49997784  0.51448356  0.43606084
   0.49997477  0.49196589  0.40626703
   0.49996333  0.50876880  0.59354049
   0.53741800  0.46272732  0.56594305
   0.46270631  0.46263621  0.56589521
   0.46295015  0.46093052  0.47912291
   0.53722827  0.53759215  0.43459465
   0.46272524  0.53759057  0.43460791
   0.46294717  0.53883711  0.52064110
   0.53704820  0.53885036  0.52062889
   0.53704033  0.46093211  0.47910814
 
 position of ions in cartesian coordinates  (Angst):
  11.83522604 13.51638177 14.36233188
  11.83598792 13.54953494 16.92261981
  11.83547721 14.37252416 15.63234348
  11.83486565 14.35217891 13.08182521
  11.83479281 13.72401961 12.18801081
  11.83452202 14.19275817 17.80621461
  12.72110346 12.90837222 16.97829160
  10.95261938 12.90583039 16.97685617
  10.95839124 12.85824806 14.37368722
  12.71661240 14.99682259 13.03783961
  10.95306754 14.99677845 13.03823718
  10.95832067 15.03155227 15.61923313
  12.71234990 15.03192207 15.61886675
  12.71216364 12.85829236 14.37324424
 


--------------------------------------------------------------------------------------------------------


 use parallel FFT for orbitals z direction half grid
 k-point   1 :   0.0000 0.0000 0.0000  plane waves:  251494

 maximum and minimum number of plane-waves per node :     62879    62871

 maximum number of plane-waves:    251494
 maximum index in each direction: 
   IXMAX=   43   IYMAX=   50   IZMAX=   54
   IXMIN=  -43   IYMIN=  -50   IZMIN=    0


 real space projection operators:
  total allocation   :        670.67 KBytes
  max/ min on nodes  :        169.67        162.45


 parallel 3D FFT for wavefunctions:
    minimum data exchange during FFTs selected (reduces bandwidth)
 parallel 3D FFT for charge:
    minimum data exchange during FFTs selected (reduces bandwidth)


 total amount of memory used by VASP MPI-rank0   110027. kBytes
=======================================================================

   base      :      30000. kBytes
   nonlr-proj:        199. kBytes
   fftplans  :      26989. kBytes
   grid      :      49815. kBytes
   one-center:          6. kBytes
   wavefun   :       3018. kBytes
 
     INWAV:  cpu time      0.0005: real time      0.0010
 Broyden mixing: mesh for mixing (old mesh)
   NGX = 87   NGY =101   NGZ =109
  (NGX  =280   NGY  =320   NGZ  =336)
  gives a total of 957783 points

 initial charge density was supplied:
 charge density of overlapping atoms calculated
 number of electron      26.0000000 magnetization 
 keeping initial charge density in first step


--------------------------------------------------------------------------------------------------------


 Maximum index for non-local projection operator          307
 Maximum index for augmentation-charges            0 (set IRDMAX)


--------------------------------------------------------------------------------------------------------


 First call to EWALD:  gamma=   0.066
 Maximum number of real-space cells 3x 3x 3
 Maximum number of reciprocal cells 2x 3x 3

    FEWALD:  cpu time      0.0070: real time      0.0070


--------------------------------------- Iteration      1(   1)  ---------------------------------------


vdW kernel read from vdw_kernel.bindat
  0.0000  0.2424  0.5071  0.7962  1.1119  1.4567  1.8333  2.2446  2.6937  3.1842
  3.7199  4.3049  4.9438  5.6415  6.4036  7.2358  8.1446  9.1372 10.2212 11.4050
 12.6979 14.1099 15.6519 17.3360 19.1751 21.1837 23.3773 25.7729 28.3892 31.2465
 34.3669 37.7748 41.4965 45.5611 50.0000
 
    POTLOK:  cpu time      9.6471: real time      9.6679
    SETDIJ:  cpu time      0.0102: real time      0.0103
    TRIAL :  cpu time      1.9224: real time      2.0117
    CORREC:  cpu time      0.0007: real time      0.0007
    --------------------------------------------
      LOOP:  cpu time     11.5874: real time     11.7021

 eigenvalue-minimisations  :   192
 total energy-change (2. order) : 0.7593960E+02  (-0.4516693E+03)
 number of electron      26.0000000 magnetization 
 augmentation part       26.0000000 magnetization 

 Free energy of the ion-electron system (eV)
  ---------------------------------------------------
  alpha Z        PSCENC =         0.13979029
  Ewald energy   TEWEN  =      1598.11619990
  -Hartree energ DENC   =     -2025.82579073
  -exchange      EXHF   =         0.00000000
  -V(xc)+E(xc)   XCENC  =        76.56543724
  PAW double counting   =       453.49833854     -457.53736474
  entropy T*S    EENTRO =        -0.00000000
  eigenvalues    EBANDS =      -297.62663335
  atomic energy  EATOM  =       728.60961952
  ---------------------------------------------------
  free energy    TOTEN  =        75.93959668 eV

  energy without entropy =       75.93959668  energy(sigma->0) =       75.93959668


--------------------------------------------------------------------------------------------------------




--------------------------------------- Iteration      1(   2)  ---------------------------------------


    TRIAL :  cpu time      1.7347: real time      1.7497
    CORREC:  cpu time      0.0006: real time      0.0006
    --------------------------------------------
      LOOP:  cpu time      1.7463: real time      1.7892

 eigenvalue-minimisations  :   192
 total energy-change (2. order) :-0.1401385E+03  (-0.1401385E+03)
 number of electron      26.0000000 magnetization 
 augmentation part       26.0000000 magnetization 

 Free energy of the ion-electron system (eV)
  ---------------------------------------------------
  alpha Z        PSCENC =         0.13979029
  Ewald energy   TEWEN  =      1598.11619990
  -Hartree energ DENC   =     -2025.82579073
  -exchange      EXHF   =         0.00000000
  -V(xc)+E(xc)   XCENC  =        76.56543724
  PAW double counting   =       453.49833854     -457.53736474
  entropy T*S    EENTRO =        -0.00000000
  eigenvalues    EBANDS =      -437.76513535
  atomic energy  EATOM  =       728.60961952
  ---------------------------------------------------
  free energy    TOTEN  =       -64.19890533 eV

  energy without entropy =      -64.19890533  energy(sigma->0) =      -64.19890533


--------------------------------------------------------------------------------------------------------




--------------------------------------- Iteration      1(   3)  ---------------------------------------


    TRIAL :  cpu time      0.9586: real time      0.9654
    CORREC:  cpu time      0.0007: real time      0.0007
    --------------------------------------------
      LOOP:  cpu time      0.9646: real time      1.0027

 eigenvalue-minimisations  :    96
 total energy-change (2. order) :-0.1397336E+02  (-0.1397336E+02)
 number of electron      26.0000000 magnetization 
 augmentation part       26.0000000 magnetization 

 Free energy of the ion-electron system (eV)
  ---------------------------------------------------
  alpha Z        PSCENC =         0.13979029
  Ewald energy   TEWEN  =      1598.11619990
  -Hartree energ DENC   =     -2025.82579073
  -exchange      EXHF   =         0.00000000
  -V(xc)+E(xc)   XCENC  =        76.56543724
  PAW double counting   =       453.49833854     -457.53736474
  entropy T*S    EENTRO =        -0.00000000
  eigenvalues    EBANDS =      -451.73849426
  atomic energy  EATOM  =       728.60961952
  ---------------------------------------------------
  free energy    TOTEN  =       -78.17226423 eV

  energy without entropy =      -78.17226423  energy(sigma->0) =      -78.17226423


--------------------------------------------------------------------------------------------------------




--------------------------------------- Iteration      1(   4)  ---------------------------------------


    TRIAL :  cpu time      1.7121: real time      1.7202
    CORREC:  cpu time      0.0004: real time      0.0004
    --------------------------------------------
      LOOP:  cpu time      1.7170: real time      1.7552

 eigenvalue-minimisations  :   192
 total energy-change (2. order) :-0.5766601E+00  (-0.5766601E+00)
 number of electron      26.0000000 magnetization 
 augmentation part       26.0000000 magnetization 

 Free energy of the ion-electron system (eV)
  ---------------------------------------------------
  alpha Z        PSCENC =         0.13979029
  Ewald energy   TEWEN  =      1598.11619990
  -Hartree energ DENC   =     -2025.82579073
  -exchange      EXHF   =         0.00000000
  -V(xc)+E(xc)   XCENC  =        76.56543724
  PAW double counting   =       453.49833854     -457.53736474
  entropy T*S    EENTRO =        -0.00000000
  eigenvalues    EBANDS =      -452.31515437
  atomic energy  EATOM  =       728.60961952
  ---------------------------------------------------
  free energy    TOTEN  =       -78.74892434 eV

  energy without entropy =      -78.74892434  energy(sigma->0) =      -78.74892434


--------------------------------------------------------------------------------------------------------




--------------------------------------- Iteration      1(   5)  ---------------------------------------


    TRIAL :  cpu time      0.9856: real time      0.9896
    CORREC:  cpu time      0.0004: real time      0.0004
    CHARGE:  cpu time      0.2659: real time      0.2668
    --------------------------------------------
      LOOP:  cpu time      1.2777: real time      1.3119

 eigenvalue-minimisations  :    96
 total energy-change (2. order) :-0.2696006E-03  (-0.2696006E-03)
 number of electron      25.9999995 magnetization 
 augmentation part        0.7225776 magnetization 

 Free energy of the ion-electron system (eV)
  ---------------------------------------------------
  alpha Z        PSCENC =         0.13979029
  Ewald energy   TEWEN  =      1598.11619990
  -Hartree energ DENC   =     -2025.82579073
  -exchange      EXHF   =         0.00000000
  -V(xc)+E(xc)   XCENC  =        76.56543724
  PAW double counting   =       453.49833854     -457.53736474
  entropy T*S    EENTRO =        -0.00000000
  eigenvalues    EBANDS =      -452.31542397
  atomic energy  EATOM  =       728.60961952
  ---------------------------------------------------
  free energy    TOTEN  =       -78.74919394 eV

  energy without entropy =      -78.74919394  energy(sigma->0) =      -78.74919394


--------------------------------------------------------------------------------------------------------




--------------------------------------- Iteration      1(   6)  ---------------------------------------


    POTLOK:  cpu time      8.1936: real time      8.2057
    SETDIJ:  cpu time      0.0086: real time      0.0086
    TRIAL :  cpu time      0.6052: real time      0.6126
    CORREC:  cpu time      9.0051: real time      9.0184
    CHARGE:  cpu time      0.2433: real time      0.2433
    --------------------------------------------
      LOOP:  cpu time     18.0695: real time     18.1323

 eigenvalue-minimisations  :     0
 total energy-change (2. order) : 0.1789913E+02  (-0.7162593E+01)
 number of electron      25.9999991 magnetization 
 augmentation part        0.6418343 magnetization 

 Free energy of the ion-electron system (eV)
  ---------------------------------------------------
  alpha Z        PSCENC =         0.13979029
  Ewald energy   TEWEN  =      1598.11619990
  -Hartree energ DENC   =     -2303.65356431
  -exchange      EXHF   =         0.00000000
  -V(xc)+E(xc)   XCENC  =        89.63842172
  PAW double counting   =      1852.18192709    -1856.40329047
  entropy T*S    EENTRO =        -0.00000000
  eigenvalues    EBANDS =      -169.47917196
  atomic energy  EATOM  =       728.60961952
  ---------------------------------------------------
  free energy    TOTEN  =       -60.85006821 eV

  energy without entropy =      -60.85006821  energy(sigma->0) =      -60.85006821


--------------------------------------------------------------------------------------------------------




--------------------------------------- Iteration      1(   7)  ---------------------------------------


    POTLOK:  cpu time      8.6217: real time      8.6306
    SETDIJ:  cpu time      0.0096: real time      0.0096
    TRIAL :  cpu time      0.5653: real time      0.5697
    CORREC:  cpu time      8.9798: real time      8.9945
    CHARGE:  cpu time      0.2400: real time      0.2400
    --------------------------------------------
      LOOP:  cpu time     18.4195: real time     18.4774

 eigenvalue-minimisations  :     0
 total energy-change (2. order) :-0.7200295E+01  (-0.8753186E+00)
 number of electron      25.9999989 magnetization 
 augmentation part        0.6148800 magnetization 

 Free energy of the ion-electron system (eV)
  ---------------------------------------------------
  alpha Z        PSCENC =         0.13979029
  Ewald energy   TEWEN  =      1598.11619990
  -Hartree energ DENC   =     -2188.96268748
  -exchange      EXHF   =         0.00000000
  -V(xc)+E(xc)   XCENC  =        84.84464090
  PAW double counting   =      1791.67007654    -1795.82124691
  entropy T*S    EENTRO =        -0.00000000
  eigenvalues    EBANDS =      -286.64675567
  atomic energy  EATOM  =       728.60961952
  ---------------------------------------------------
  free energy    TOTEN  =       -68.05036291 eV

  energy without entropy =      -68.05036291  energy(sigma->0) =      -68.05036291


--------------------------------------------------------------------------------------------------------




--------------------------------------- Iteration      1(   8)  ---------------------------------------


    POTLOK:  cpu time      8.5677: real time      8.5800
    SETDIJ:  cpu time      0.0141: real time      0.0141
    TRIAL :  cpu time      0.6028: real time      0.6065
    CORREC:  cpu time      8.9755: real time      8.9870
    CHARGE:  cpu time      0.2414: real time      0.2415
    --------------------------------------------
      LOOP:  cpu time     18.8358: real time     18.8642

 eigenvalue-minimisations  :     0
 total energy-change (2. order) :-0.8836434E+00  (-0.4697201E+00)
 number of electron      25.9999988 magnetization 
 augmentation part        0.6084724 magnetization 

 Free energy of the ion-electron system (eV)
  ---------------------------------------------------
  alpha Z        PSCENC =         0.13979029
  Ewald energy   TEWEN  =      1598.11619990
  -Hartree energ DENC   =     -2182.44385173
  -exchange      EXHF   =         0.00000000
  -V(xc)+E(xc)   XCENC  =        84.75408156
  PAW double counting   =      1847.88586721    -1852.01451883
  entropy T*S    EENTRO =        -0.00000000
  eigenvalues    EBANDS =      -293.98119425
  atomic energy  EATOM  =       728.60961952
  ---------------------------------------------------
  free energy    TOTEN  =       -68.93400633 eV

  energy without entropy =      -68.93400633  energy(sigma->0) =      -68.93400633


--------------------------------------------------------------------------------------------------------




--------------------------------------- Iteration      1(   9)  ---------------------------------------


    POTLOK:  cpu time      8.7191: real time      8.7317
    SETDIJ:  cpu time      0.0089: real time      0.0089
    TRIAL :  cpu time      0.5643: real time      0.5708
    CORREC:  cpu time      8.9095: real time      8.9234
    CHARGE:  cpu time      0.2382: real time      0.2381
    --------------------------------------------
      LOOP:  cpu time     18.4433: real time     18.5105

 eigenvalue-minimisations  :     0
 total energy-change (2. order) :-0.4520657E+00  (-0.1412007E+00)
 number of electron      25.9999988 magnetization 
 augmentation part        0.6114542 magnetization 

 Free energy of the ion-electron system (eV)
  ---------------------------------------------------
  alpha Z        PSCENC =         0.13979029
  Ewald energy   TEWEN  =      1598.11619990
  -Hartree energ DENC   =     -2169.03034210
  -exchange      EXHF   =         0.00000000
  -V(xc)+E(xc)   XCENC  =        84.23472311
  PAW double counting   =      1868.32753447    -1872.44133080
  entropy T*S    EENTRO =        -0.00000000
  eigenvalues    EBANDS =      -307.34226645
  atomic energy  EATOM  =       728.60961952
  ---------------------------------------------------
  free energy    TOTEN  =       -69.38607206 eV

  energy without entropy =      -69.38607206  energy(sigma->0) =      -69.38607206


--------------------------------------------------------------------------------------------------------




--------------------------------------- Iteration      1(  10)  ---------------------------------------


    POTLOK:  cpu time      8.5542: real time      8.5651
    SETDIJ:  cpu time      0.0093: real time      0.0093
    TRIAL :  cpu time      0.5653: real time      0.5732
    CORREC:  cpu time      8.8904: real time      8.9033
    CHARGE:  cpu time      0.2511: real time      0.2511
    --------------------------------------------
      LOOP:  cpu time     18.2728: real time     18.3340

 eigenvalue-minimisations  :     0
 total energy-change (2. order) :-0.1400247E+00  (-0.4017903E-01)
 number of electron      25.9999989 magnetization 
 augmentation part        0.6134249 magnetization 

 Free energy of the ion-electron system (eV)
  ---------------------------------------------------
  alpha Z        PSCENC =         0.13979029
  Ewald energy   TEWEN  =      1598.11619990
  -Hartree energ DENC   =     -2168.82504053
  -exchange      EXHF   =         0.00000000
  -V(xc)+E(xc)   XCENC  =        84.20479640
  PAW double counting   =      1859.80245344    -1863.91649672
  entropy T*S    EENTRO =        -0.00000000
  eigenvalues    EBANDS =      -307.65741904
  atomic energy  EATOM  =       728.60961952
  ---------------------------------------------------
  free energy    TOTEN  =       -69.52609675 eV

  energy without entropy =      -69.52609675  energy(sigma->0) =      -69.52609675


--------------------------------------------------------------------------------------------------------




--------------------------------------- Iteration      1(  11)  ---------------------------------------


    POTLOK:  cpu time      8.5116: real time      8.5252
    SETDIJ:  cpu time      0.0118: real time      0.0118
    TRIAL :  cpu time      0.5589: real time      0.5701
    CORREC:  cpu time      8.9240: real time      8.9354
    CHARGE:  cpu time      0.2478: real time      0.2493
    --------------------------------------------
      LOOP:  cpu time     18.2577: real time     18.3243

 eigenvalue-minimisations  :     0
 total energy-change (2. order) :-0.4014238E-01  (-0.1161580E-01)
 number of electron      25.9999989 magnetization 
 augmentation part        0.6140849 magnetization 

 Free energy of the ion-electron system (eV)
  ---------------------------------------------------
  alpha Z        PSCENC =         0.13979029
  Ewald energy   TEWEN  =      1598.11619990
  -Hartree energ DENC   =     -2169.14205529
  -exchange      EXHF   =         0.00000000
  -V(xc)+E(xc)   XCENC  =        84.18255624
  PAW double counting   =      1838.97850710    -1843.09670581
  entropy T*S    EENTRO =        -0.00000000
  eigenvalues    EBANDS =      -307.35415107
  atomic energy  EATOM  =       728.60961952
  ---------------------------------------------------
  free energy    TOTEN  =       -69.56623912 eV

  energy without entropy =      -69.56623912  energy(sigma->0) =      -69.56623912


--------------------------------------------------------------------------------------------------------




--------------------------------------- Iteration      1(  12)  ---------------------------------------


    POTLOK:  cpu time      8.8058: real time      8.8190
    SETDIJ:  cpu time      0.0089: real time      0.0089
    TRIAL :  cpu time      0.5682: real time      0.5720
    CORREC:  cpu time      8.7898: real time      8.8048
    CHARGE:  cpu time      0.2370: real time      0.2369
    --------------------------------------------
      LOOP:  cpu time     18.4129: real time     18.4798

 eigenvalue-minimisations  :     0
 total energy-change (2. order) :-0.1164957E-01  (-0.3674073E-02)
 number of electron      25.9999989 magnetization 
 augmentation part        0.6150327 magnetization 

 Free energy of the ion-electron system (eV)
  ---------------------------------------------------
  alpha Z        PSCENC =         0.13979029
  Ewald energy   TEWEN  =      1598.11619990
  -Hartree energ DENC   =     -2168.34409481
  -exchange      EXHF   =         0.00000000
  -V(xc)+E(xc)   XCENC  =        84.12284159
  PAW double counting   =      1823.11816325    -1827.23978208
  entropy T*S    EENTRO =        -0.00000000
  eigenvalues    EBANDS =      -308.10062634
  atomic energy  EATOM  =       728.60961952
  ---------------------------------------------------
  free energy    TOTEN  =       -69.57788869 eV

  energy without entropy =      -69.57788869  energy(sigma->0) =      -69.57788869


--------------------------------------------------------------------------------------------------------




--------------------------------------- Iteration      1(  13)  ---------------------------------------


    POTLOK:  cpu time      8.3274: real time      8.3393
    SETDIJ:  cpu time      0.0083: real time      0.0083
    TRIAL :  cpu time      0.5642: real time      0.5726
    CORREC:  cpu time      8.6725: real time      8.6851
    CHARGE:  cpu time      0.2375: real time      0.2375
    --------------------------------------------
      LOOP:  cpu time     17.8130: real time     17.8736

 eigenvalue-minimisations  :     0
 total energy-change (2. order) :-0.3680934E-02  (-0.1368112E-02)
 number of electron      25.9999989 magnetization 
 augmentation part        0.6152195 magnetization 

 Free energy of the ion-electron system (eV)
  ---------------------------------------------------
  alpha Z        PSCENC =         0.13979029
  Ewald energy   TEWEN  =      1598.11619990
  -Hartree energ DENC   =     -2169.21570662
  -exchange      EXHF   =         0.00000000
  -V(xc)+E(xc)   XCENC  =        84.15723186
  PAW double counting   =      1817.77985389    -1821.90411722
  entropy T*S    EENTRO =        -0.00000000
  eigenvalues    EBANDS =      -307.26444124
  atomic energy  EATOM  =       728.60961952
  ---------------------------------------------------
  free energy    TOTEN  =       -69.58156963 eV

  energy without entropy =      -69.58156963  energy(sigma->0) =      -69.58156963


--------------------------------------------------------------------------------------------------------




--------------------------------------- Iteration      1(  14)  ---------------------------------------


    POTLOK:  cpu time      8.2070: real time      8.2199
    SETDIJ:  cpu time      0.0085: real time      0.0085
    TRIAL :  cpu time      0.5637: real time      0.5708
    CORREC:  cpu time      8.4985: real time      8.5122
    CHARGE:  cpu time      0.2411: real time      0.2412
    --------------------------------------------
      LOOP:  cpu time     17.5521: real time     17.5862

 eigenvalue-minimisations  :     0
 total energy-change (2. order) :-0.1367506E-02  (-0.5002514E-03)
 number of electron      25.9999989 magnetization 
 augmentation part        0.6153308 magnetization 

 Free energy of the ion-electron system (eV)
  ---------------------------------------------------
  alpha Z        PSCENC =         0.13979029
  Ewald energy   TEWEN  =      1598.11619990
  -Hartree energ DENC   =     -2169.30765849
  -exchange      EXHF   =         0.00000000
  -V(xc)+E(xc)   XCENC  =        84.16509534
  PAW double counting   =      1816.57401476    -1820.69951156
  entropy T*S    EENTRO =        -0.00000000
  eigenvalues    EBANDS =      -307.18048690
  atomic energy  EATOM  =       728.60961952
  ---------------------------------------------------
  free energy    TOTEN  =       -69.58293713 eV

  energy without entropy =      -69.58293713  energy(sigma->0) =      -69.58293713


--------------------------------------------------------------------------------------------------------




--------------------------------------- Iteration      1(  15)  ---------------------------------------


    POTLOK:  cpu time      8.1543: real time      8.1648
    SETDIJ:  cpu time      0.0092: real time      0.0092
    TRIAL :  cpu time      0.5693: real time      0.5743
    CORREC:  cpu time      8.6751: real time      8.6886
    CHARGE:  cpu time      0.2395: real time      0.2406
    --------------------------------------------
      LOOP:  cpu time     17.6502: real time     17.7092

 eigenvalue-minimisations  :     0
 total energy-change (2. order) :-0.4991725E-03  (-0.1514632E-03)
 number of electron      25.9999989 magnetization 
 augmentation part        0.6154198 magnetization 

 Free energy of the ion-electron system (eV)
  ---------------------------------------------------
  alpha Z        PSCENC =         0.13979029
  Ewald energy   TEWEN  =      1598.11619990
  -Hartree energ DENC   =     -2169.43758063
  -exchange      EXHF   =         0.00000000
  -V(xc)+E(xc)   XCENC  =        84.17264469
  PAW double counting   =      1818.06148665    -1822.18718518
  entropy T*S    EENTRO =        -0.00000000
  eigenvalues    EBANDS =      -307.05841153
  atomic energy  EATOM  =       728.60961952
  ---------------------------------------------------
  free energy    TOTEN  =       -69.58343631 eV

  energy without entropy =      -69.58343631  energy(sigma->0) =      -69.58343631


--------------------------------------------------------------------------------------------------------




--------------------------------------- Iteration      1(  16)  ---------------------------------------


    POTLOK:  cpu time      8.0942: real time      8.1066
    SETDIJ:  cpu time      0.0092: real time      0.0092
    TRIAL :  cpu time      0.5630: real time      0.5694
    CORREC:  cpu time      8.5367: real time      8.5510
    CHARGE:  cpu time      0.2478: real time      0.2479
    --------------------------------------------
      LOOP:  cpu time     17.4540: real time     17.5185

 eigenvalue-minimisations  :     0
 total energy-change (2. order) :-0.1506151E-03  (-0.4079185E-04)
 number of electron      25.9999989 magnetization 
 augmentation part        0.6153189 magnetization 

 Free energy of the ion-electron system (eV)
  ---------------------------------------------------
  alpha Z        PSCENC =         0.13979029
  Ewald energy   TEWEN  =      1598.11619990
  -Hartree energ DENC   =     -2169.61516564
  -exchange      EXHF   =         0.00000000
  -V(xc)+E(xc)   XCENC  =        84.18140740
  PAW double counting   =      1819.98651731    -1824.11195780
  entropy T*S    EENTRO =        -0.00000000
  eigenvalues    EBANDS =      -306.88999790
  atomic energy  EATOM  =       728.60961952
  ---------------------------------------------------
  free energy    TOTEN  =       -69.58358692 eV

  energy without entropy =      -69.58358692  energy(sigma->0) =      -69.58358692


--------------------------------------------------------------------------------------------------------




--------------------------------------- Iteration      1(  17)  ---------------------------------------


    POTLOK:  cpu time      8.1213: real time      8.1333
    SETDIJ:  cpu time      0.0088: real time      0.0088
    TRIAL :  cpu time      0.5607: real time      0.5695
    CORREC:  cpu time      8.4619: real time      8.4748
    CHARGE:  cpu time      0.2401: real time      0.2400
    --------------------------------------------
      LOOP:  cpu time     17.3997: real time     17.4610

 eigenvalue-minimisations  :     0
 total energy-change (2. order) :-0.4037722E-04  (-0.1407304E-04)
 number of electron      25.9999989 magnetization 
 augmentation part        0.6152752 magnetization 

 Free energy of the ion-electron system (eV)
  ---------------------------------------------------
  alpha Z        PSCENC =         0.13979029
  Ewald energy   TEWEN  =      1598.11619990
  -Hartree energ DENC   =     -2169.55507678
  -exchange      EXHF   =         0.00000000
  -V(xc)+E(xc)   XCENC  =        84.17903256
  PAW double counting   =      1820.93345336    -1825.05855442
  entropy T*S    EENTRO =        -0.00000000
  eigenvalues    EBANDS =      -306.94809172
  atomic energy  EATOM  =       728.60961952
  ---------------------------------------------------
  free energy    TOTEN  =       -69.58362730 eV

  energy without entropy =      -69.58362730  energy(sigma->0) =      -69.58362730


--------------------------------------------------------------------------------------------------------




--------------------------------------- Iteration      1(  18)  ---------------------------------------


    POTLOK:  cpu time      8.1021: real time      8.1146
    SETDIJ:  cpu time      0.0081: real time      0.0081
    TRIAL :  cpu time      0.5637: real time      0.5692
    CORREC:  cpu time      8.6051: real time      8.6179
    CHARGE:  cpu time      0.2434: real time      0.2435
    --------------------------------------------
      LOOP:  cpu time     17.5267: real time     17.5870

 eigenvalue-minimisations  :     0
 total energy-change (2. order) :-0.1348538E-04  (-0.5636627E-05)
 number of electron      25.9999989 magnetization 
 augmentation part        0.6152179 magnetization 

 Free energy of the ion-electron system (eV)
  ---------------------------------------------------
  alpha Z        PSCENC =         0.13979029
  Ewald energy   TEWEN  =      1598.11619990
  -Hartree energ DENC   =     -2169.58697525
  -exchange      EXHF   =         0.00000000
  -V(xc)+E(xc)   XCENC  =        84.18028768
  PAW double counting   =      1821.55116530    -1825.67605217
  entropy T*S    EENTRO =        -0.00000000
  eigenvalues    EBANDS =      -306.91767606
  atomic energy  EATOM  =       728.60961952
  ---------------------------------------------------
  free energy    TOTEN  =       -69.58364078 eV

  energy without entropy =      -69.58364078  energy(sigma->0) =      -69.58364078


--------------------------------------------------------------------------------------------------------




--------------------------------------- Iteration      1(  19)  ---------------------------------------


    POTLOK:  cpu time      8.2466: real time      8.2586
    SETDIJ:  cpu time      0.0083: real time      0.0083
    TRIAL :  cpu time      0.5620: real time      0.5709
    CORREC:  cpu time      8.4359: real time      8.4507
    EDDIAG:  cpu time      0.2419: real time      0.2547
    CHARGE:  cpu time      0.2393: real time      0.2393
    --------------------------------------------
      LOOP:  cpu time     17.7644: real time     17.8132

 eigenvalue-minimisations  :     0
 total energy-change (2. order) :-0.5427259E-05  (-0.1996365E-05)
 number of electron      25.9999989 magnetization 
 augmentation part        0.6152120 magnetization 

 Free energy of the ion-electron system (eV)
  ---------------------------------------------------
  alpha Z        PSCENC =         0.13979029
  Ewald energy   TEWEN  =      1598.11619990
  -Hartree energ DENC   =     -2169.55790747
  -exchange      EXHF   =         0.00000000
  -V(xc)+E(xc)   XCENC  =        84.17911420
  PAW double counting   =      1821.69713855    -1825.82193773
  entropy T*S    EENTRO =        -0.00000000
  eigenvalues    EBANDS =      -306.94566347
  atomic energy  EATOM  =       728.60961952
  ---------------------------------------------------
  free energy    TOTEN  =       -69.58364621 eV

  energy without entropy =      -69.58364621  energy(sigma->0) =      -69.58364621


--------------------------------------------------------------------------------------------------------


  average scaling for gradient   1.4831


 average (electrostatic) potential at core
  the test charge radii are     0.6991  0.5201
  (the norm of the test charge is              1.0000)
       1 -58.8460       2 -58.7221       3 -58.8467       4 -58.7176       5 -42.7890
       6 -42.7864       7 -42.7648       8 -42.7647       9 -42.7075      10 -42.7724
      11 -42.7725      12 -42.6997      13 -42.6997      14 -42.7071
 
 
 
 E-fermi :  -7.9334     XC(G=0):  -0.1102     alpha+bet : -0.0342

 Fermi energy:        -7.9334148663

 k-point     1 :       0.0000    0.0000    0.0000
  band No.  band energies     occupation 
      1     -19.9522      2.00000
      2     -18.1682      2.00000
      3     -15.8014      2.00000
      4     -14.4110      2.00000
      5     -11.6774      2.00000
      6     -10.6066      2.00000
      7     -10.4324      2.00000
      8     -10.2317      2.00000
      9      -9.1613      2.00000
     10      -8.7155      2.00000
     11      -8.2914      2.00000
     12      -8.0194      2.00000
     13      -8.0049      2.00000
     14      -0.9272      0.00000
     15      -0.5259      0.00000
     16      -0.3574      0.00000
     17      -0.3096      0.00000
     18       0.0173      0.00000
     19       0.1545      0.00000
     20       0.1991      0.00000
     21       0.2000      0.00000
     22       0.2206      0.00000
     23       0.2252      0.00000
     24       0.2963      0.00000
     25       0.3008      0.00000
     26       0.3600      0.00000
     27       0.3688      0.00000
     28       0.3822      0.00000
     29       0.3874      0.00000
     30       0.3952      0.00000
     31       0.4221      0.00000
     32       0.4368      0.00000
     33       0.4533      0.00000
     34       0.4756      0.00000
     35       0.5027      0.00000
     36       0.5099      0.00000
     37       0.5354      0.00000
     38       0.5868      0.00000
     39       0.6111      0.00000
     40       0.6407      0.00000
     41       0.7151      0.00000
     42       0.7644      0.00000
     43       0.8266      0.00000
     44       0.9452      0.00000
     45       1.0389      0.00000
     46       1.0814      0.00000
     47       1.2035      0.00000
     48       1.2076      0.00000


--------------------------------------------------------------------------------------------------------


 soft charge-density along one line, spin component           1
         0         1         2         3         4         5         6         7         8         9
 total charge-density along one line
 
 pseudopotential strength for first ion, spin component:           1
 10.265  13.652  -0.000  -0.000  -0.000   0.001   0.001   0.000
 13.652  18.156  -0.000  -0.001  -0.000   0.001   0.001   0.000
 -0.000  -0.000  -4.258   0.000  -0.000   8.329  -0.000   0.000
 -0.000  -0.001   0.000  -4.256   0.000  -0.000   8.326  -0.000
 -0.000  -0.000  -0.000   0.000  -4.258   0.000  -0.000   8.330
  0.001   0.001   8.329  -0.000   0.000 -18.433   0.001  -0.000
  0.001   0.001  -0.000   8.326  -0.000   0.001 -18.429   0.000
  0.000   0.000   0.000  -0.000   8.330  -0.000   0.000 -18.434
 total augmentation occupancy for first ion, spin component:           1
  8.112  -3.585  -0.089   0.007  -0.000  -0.004   0.001  -0.000
 -3.585   1.617   0.050   0.001   0.000  -0.001  -0.001   0.000
 -0.089   0.050   1.592  -0.001   0.000   0.136  -0.001   0.000
  0.007   0.001  -0.001   1.579  -0.000  -0.001   0.137  -0.000
 -0.000   0.000   0.000  -0.000   1.628   0.000  -0.000   0.135
 -0.004  -0.001   0.136  -0.001   0.000   0.012  -0.000   0.000
  0.001  -0.001  -0.001   0.137  -0.000  -0.000   0.013   0.000
 -0.000   0.000   0.000  -0.000   0.135   0.000   0.000   0.012


------------------------ aborting loop because EDIFF is reached ----------------------------------------


    FORLOC:  cpu time      0.0478: real time      0.0478
    FORNL :  cpu time      0.3323: real time      0.3325
    STRESS:  cpu time      0.9285: real time      0.9300
    FORCOR:  cpu time      8.1226: real time      8.1338
    OFIELD:  cpu time      0.0008: real time      0.0008

  FORCE on cell =-STRESS in cart. coord.  units (eV):
  Direction    XX          YY          ZZ          XY          YZ          ZX
  --------------------------------------------------------------------------------------
  Alpha Z     0.13979     0.13979     0.13979
  Ewald     303.02225   371.47049   923.62319    -0.03855   -97.20790     0.21593
  Hartree   548.23832   584.54032  1036.77759    -0.03043   -78.84680     0.16746
  E(xc)     -95.59642   -95.88696   -96.37679     0.00001     0.14202     0.00004
  Local   -1058.28691 -1168.77498 -2180.73501     0.07029   178.85123    -0.38428
  n-local   -44.87410   -43.77420   -42.55726    -0.00236    -0.55057     0.00231
  augment    -0.16239    -0.10611    -0.02682    -0.00003    -0.02869     0.00004
  Kinetic   347.32189   352.19461   358.91496     0.00012    -2.35640    -0.00284
  Fock        0.00000     0.00000     0.00000     0.00000     0.00000     0.00000
  -------------------------------------------------------------------------------------
  Total      -0.19757    -0.19704    -0.24036    -0.00094     0.00290    -0.00135
  in kB      -0.01598    -0.01594    -0.01944    -0.00008     0.00023    -0.00011
  external pressure =       -0.02 kB  Pullay stress =        0.00 kB


 VOLUME and BASIS-vectors are now :
 -----------------------------------------------------------------------------
  energy-cutoff  :      500.00
  volume of cell :    19809.80
      direct lattice vectors                 reciprocal lattice vectors
    23.670780182  0.000000000  0.000000000     0.042246178  0.000000000  0.000000000
     0.000000000 27.896282673  0.000000000     0.000000000  0.035847070  0.000000000
     0.000000000  0.000000000 30.000000000     0.000000000  0.000000000  0.033333333

  length of vectors
    23.670780182 27.896282673 30.000000000     0.042246178  0.035847070  0.033333333


 FORCES acting on ions:
    Electron-Ion                     Ewald-Force                    Non-Local-Force
 -----------------------------------------------------------------------------------------------
   0.144E-03 0.849E+02 0.408E+02   0.667E-03 -.846E+02 -.404E+02   0.382E-03 -.285E+00 -.358E+00
   -.478E-01 0.431E+02 -.126E+03   0.473E-01 -.429E+02 0.126E+03   -.658E-02 -.281E+00 0.449E+00
   -.236E-02 -.832E+02 -.408E+02   0.288E-02 0.829E+02 0.404E+02   0.384E-03 0.331E+00 0.401E+00
   0.392E-01 -.434E+02 0.126E+03   -.392E-01 0.431E+02 -.126E+03   0.928E-03 0.318E+00 -.422E+00
   0.860E-02 0.297E+02 0.657E+02   -.938E-02 -.330E+02 -.704E+02   0.282E-03 0.325E+01 0.470E+01
   0.768E-01 -.306E+02 -.652E+02   -.848E-01 0.339E+02 0.699E+02   0.756E-02 -.333E+01 -.464E+01
   -.510E+02 0.425E+02 -.239E+02   0.556E+02 -.459E+02 0.242E+02   -.458E+01 0.334E+01 -.331E+00
   0.509E+02 0.427E+02 -.239E+02   -.555E+02 -.460E+02 0.242E+02   0.457E+01 0.335E+01 -.324E+00
   0.544E+02 0.516E+02 0.835E+01   -.589E+02 -.550E+02 -.830E+01   0.450E+01 0.343E+01 -.523E-01
   -.510E+02 -.430E+02 0.234E+02   0.556E+02 0.464E+02 -.237E+02   -.458E+01 -.338E+01 0.271E+00
   0.511E+02 -.430E+02 0.234E+02   -.557E+02 0.463E+02 -.237E+02   0.458E+01 -.338E+01 0.269E+00
   0.544E+02 -.515E+02 -.829E+01   -.589E+02 0.549E+02 0.823E+01   0.449E+01 -.342E+01 0.593E-01
   -.544E+02 -.515E+02 -.826E+01   0.589E+02 0.549E+02 0.821E+01   -.449E+01 -.342E+01 0.609E-01
   -.544E+02 0.516E+02 0.837E+01   0.589E+02 -.550E+02 -.833E+01   -.450E+01 0.343E+01 -.501E-01
 -----------------------------------------------------------------------------------------------
   -.204E-02 0.308E-01 -.206E-01   -.711E-14 0.142E-13 -.302E-13   -.432E-02 -.409E-01 0.346E-01
 
 
 POSITION                                       TOTAL-FORCE (eV/Angst)
 -----------------------------------------------------------------------------------
     11.83523     13.51638     14.36233         0.001634      0.022053      0.032832
     11.83599     13.54953     16.92262        -0.006614      0.003904      0.005558
     11.83548     14.37252     15.63234         0.001361     -0.006025      0.019699
     11.83487     14.35218     13.08183         0.001368     -0.007579     -0.013722
     11.83479     13.72402     12.18801        -0.000039     -0.009034     -0.000043
     11.83452     14.19276     17.80621         0.000025     -0.004729     -0.004699
     12.72110     12.90837     16.97829        -0.019343     -0.004128      0.004759
     10.95262     12.90583     16.97686         0.020327     -0.003665      0.007166
     10.95839     12.85825     14.37369        -0.017169     -0.014029     -0.008201
     12.71661     14.99682     13.03784         0.023104      0.016773     -0.019317
     10.95307     14.99678     13.03824        -0.022297      0.016377     -0.019562
     10.95832     15.03155     15.61923         0.001075      0.001494      0.002389
     12.71235     15.03192     15.61887        -0.000337      0.001726      0.001548
     12.71216     12.85829     14.37324         0.016903     -0.013139     -0.008407
 -----------------------------------------------------------------------------------
    total drift:                               -0.006355     -0.010085      0.013986


--------------------------------------------------------------------------------------------------------



  FREE ENERGIE OF THE ION-ELECTRON SYSTEM (eV)
  ---------------------------------------------------
  free  energy   TOTEN  =       -69.58364621 eV

  energy  without entropy=      -69.58364621  energy(sigma->0) =      -69.58364621
 


--------------------------------------------------------------------------------------------------------


 BEEFens 2000 ensemble energies
             -0.215710278166563E+02
             -0.599062597329691E-01
             -0.447298584065733E+01
              0.145935743788059E+02
             -0.750826159798778E+01
             -0.582662318002910E+01
             -0.152585159935057E+02
             -0.318305972688874E+02
             -0.130112693999826E+02
             -0.141166749300915E+02
             -0.111351112554336E+02
              0.879004329794416E+00
              0.624274964595557E+00
              0.382078416910701E+00
              0.115464007337462E+01
              0.159452951490093E+02
             -0.758971517741932E+01
             -0.493656984909111E+01
              0.748672134154333E+01
             -0.379670140218197E+02
              0.180134121550869E+02
             -0.756178190944274E+01
             -0.211036194070490E+01
             -0.351971476503908E+01
             -0.588368925882889E-01
             -0.190771303083675E+01
              0.308383405433608E+02
             -0.648394736646769E+01
             -0.294424030921402E+01
             -0.182287306900898E+02
              0.253417068431247E+02
             -0.311454479247771E+01
             -0.139139872584989E+02
              0.639561140075550E+01
             -0.955171766789135E+00
              0.791379867997196E+01
             -0.696129976206379E+00
              0.123509962996427E+01
              0.116373414166115E+02
             -0.348718411917771E+02
              0.196152161190697E+02
              0.400000158622685E+01
             -0.282450811137215E+01
             -0.102145403512814E+02
              0.440326811111569E+01
             -0.512037382466227E+01
              0.160942158975550E+02
              0.120078875472911E+02
             -0.827180898398692E+01
             -0.973188664518159E+01
             -0.103975741034347E+02
             -0.128486556395073E+02
              0.726266217074915E+01
             -0.175022881024126E+02
              0.491395085707728E+01
              0.204663827920550E+02
              0.235557577336385E+02
              0.114655420356240E+02
              0.620200533187430E+01
              0.105176313626867E+02
              0.316539904119021E+02
              0.668714296587032E+01
             -0.190011938398615E+02
             -0.442351285043279E+01
             -0.987934796359625E+01
              0.212458939759390E+02
             -0.260039231435494E+02
             -0.211944393733951E+02
             -0.108636390063362E+02
             -0.474026550506741E+01
             -0.140000629976139E+02
              0.974324624998999E+01
              0.461289104148224E+01
              0.411541521853226E+01
             -0.136906162472241E+02
             -0.117958684996078E+02
             -0.191754560077233E+02
              0.120299596219255E+02
             -0.108089709053845E+02
              0.108084953246305E+02
             -0.277244357680790E+01
             -0.106357825178568E+02
             -0.178427778998315E+02
             -0.491823985418711E+01
             -0.463648784135310E+01
             -0.464796399866531E+01
              0.143029710309852E+02
              0.249384442807886E+02
             -0.139252354533724E+02
             -0.268109187769106E+02
             -0.671794576779270E+01
              0.376426244497385E+02
             -0.198250785715518E+02
              0.110969218887598E+02
             -0.286223272131605E+01
             -0.214472985312313E+02
              0.945743852324048E+01
              0.114492869177990E+02
             -0.507806276220118E+01
              0.108043735345171E+02
             -0.931149146699329E+01
             -0.186241812075052E+02
              0.324872962233808E+02
              0.150124487210618E+02
              0.892573357255277E+01
              0.343751601364610E+01
              0.614205994022368E+01
              0.280954269870398E+02
             -0.964081241004954E+01
              0.141041723811020E+01
             -0.480176180493452E+02
              0.710773511916167E+01
             -0.232985446680077E+02
              0.447185710021324E+01
              0.713743748073875E+01
             -0.115966349193749E+02
             -0.180166897979471E+02
              0.104706320189786E+01
             -0.104292621122780E+02
              0.134904200520202E+02
             -0.156867302137804E+02
             -0.190137443047928E+01
             -0.127603061394988E+02
             -0.498935722735411E+00
              0.637757902653604E+00
              0.672563865402105E+01
              0.130305979819639E+00
             -0.230841815256201E+01
              0.217515753695206E+02
              0.310866189874291E+02
              0.167400918714002E+02
              0.245753572079253E+02
             -0.487900576080009E+01
              0.238886395234296E+01
              0.178807100759899E+02
             -0.217692169648259E+00
             -0.258552416127012E+02
             -0.145828508940834E+02
             -0.169468621441033E+02
             -0.100223624374275E+02
              0.937601032127009E+01
             -0.403741825358922E+02
             -0.461650412069935E+01
              0.144382609864976E+02
             -0.139717943436356E+02
             -0.110293822471445E+02
              0.185647106597688E+02
              0.160066221312147E+02
             -0.105873601631769E+02
              0.899032372819582E+01
             -0.935766170257988E+01
              0.129169011863329E+02
              0.257340910453830E+01
              0.494847122327859E+01
             -0.288277904184113E+02
             -0.162734105826717E+02
             -0.392322976550946E+01
             -0.152890004056520E+01
             -0.137552548321026E+02
              0.371789201679399E+02
             -0.518236550358446E+01
             -0.108694536769229E+02
              0.140453002222540E+02
             -0.157737572604333E+02
             -0.126026173900754E+02
              0.100634766043150E+02
              0.372505844165912E+01
              0.374610799891133E+01
              0.450517621462404E+01
             -0.411314010730874E+01
              0.464917740751537E+01
              0.202152742157570E+02
             -0.101075385714079E+02
              0.634854752839061E+01
              0.310383247365692E+02
              0.108774092996612E+02
             -0.154757630006947E+01
             -0.608247970265445E+01
              0.518975008969605E+02
             -0.778866870054009E+01
              0.131880001551430E+02
              0.932442301580107E+01
              0.106348319619709E+02
              0.317799864539407E+02
              0.162364680013448E+02
             -0.116358010896654E+01
              0.775783669563685E+01
              0.173504419296206E+02
              0.124680134876798E+02
             -0.204595318831969E+02
              0.321429115453464E+02
             -0.301600298461112E+02
             -0.484608346639298E+01
              0.191876150846932E+02
              0.368755259045365E+01
              0.109113469240691E+01
              0.105530757074823E+02
              0.668052857200456E+01
              0.113164474692835E+02
             -0.209824733052849E+02
              0.934880843709436E+00
             -0.850175486345637E+01
             -0.151480104857958E+01
              0.149711767084966E+00
             -0.400843966971023E+01
             -0.195946644511419E+01
              0.294412314715143E+02
             -0.176730306027044E+01
             -0.100367553852194E+02
             -0.871128075213887E+00
              0.476426422276758E+01
             -0.205621224280092E+02
             -0.163894667529151E+02
             -0.114976436508777E+02
             -0.211921786727145E+02
             -0.577395935354303E+01
             -0.145126148257011E+02
              0.586726379842428E+01
             -0.289599205333261E+00
             -0.452255752708953E+01
             -0.311979352018060E+01
              0.241446322910296E+01
             -0.716670493842464E+01
              0.221132021200378E+02
             -0.294025857686887E+02
             -0.393954558959034E+01
             -0.537240427903380E+01
              0.587798393027941E+01
              0.653273724915460E+01
             -0.162617743925175E+02
             -0.503069541858086E+01
              0.155954038228581E+02
             -0.839902324064830E+01
              0.484993889457616E+01
              0.124594524939515E+02
              0.201064281685888E-01
              0.388699256668116E+02
             -0.499461972089256E+01
             -0.124436065244785E+02
              0.341172312185449E+00
             -0.963203064847602E+01
              0.171455489877315E+02
             -0.153813420756986E+02
              0.477214754857204E+01
              0.178355895084206E+02
             -0.499671826959505E+01
              0.400977578145662E+02
              0.430662170574110E+02
             -0.242441657252588E+02
              0.197373973362129E+02
              0.690330696004173E+01
             -0.183777418823884E+02
              0.743791592894152E+01
              0.140150788547740E+02
              0.146764545903147E+02
              0.110275120372013E+01
              0.668143405007584E+01
              0.249388773823327E+02
             -0.807846069185766E+01
              0.373238176622974E+01
              0.230092365291119E+02
             -0.119364917643038E+02
             -0.680200219487985E+01
              0.195355532957493E+02
              0.105290830945509E+02
              0.260641505981458E+02
              0.102608088362990E+02
              0.436256840121794E+01
              0.847742177134107E+01
              0.144227661548797E+02
             -0.167525745625239E+02
              0.183508555014785E+01
              0.718411071436800E+01
              0.281279761270233E+01
              0.815691730023176E+01
             -0.212568550386646E+02
              0.115477507750450E+02
             -0.144124751219847E+02
             -0.113845491083271E+02
              0.646699087967821E+01
             -0.437737854268185E+01
              0.198065123625170E+02
             -0.682023648654287E+01
              0.946316238920893E+01
              0.103916819138157E+02
              0.271478548954310E+02
              0.185556619331284E+02
              0.176224528429776E+02
             -0.276207427174597E+01
             -0.247766737327285E+01
             -0.111161946637704E+02
              0.270798552696833E+02
              0.277058773976971E+02
              0.127072311798740E+02
             -0.853510523034958E+01
              0.168442102835851E+02
             -0.239696158398765E+01
              0.710995924168533E+01
              0.227053320011480E+02
             -0.111525093999970E+01
             -0.394394322063371E+01
             -0.887664349571475E+01
[...]
  274          m_sumb_d                              0.000103                          1   4
  275        fornlr                                0.326807                            1   3
  276          rspher_all                            0.007510                          3   4
  277          phaser                                0.000000                          3   4
  278          rpro_isp                              0.295244                          3   4
  279            fftwav_mpi                            0.291543                        3   5
  280              fft3d_mpi                             0.251820                      3   6
  281                fftbrc_mpi                            0.217474                    3   7
  282                  fftbas_plan_mpi                       0.217465                  3   8
  283                    dfftw_execute                         0.095598                9   9
  284                    map_forward                           0.119249                6   9
  285                      map_gather                            0.022311              3  10
  286                      m_alltoallv_z                         0.032680              3  10
  287                      map_scatter                           0.035526              3  10
  288            rpromu                                0.001917                        3   5
  289              rpromu_gemm                           0.000499                     42   6
  290              m_sumb_d                              0.000677                      3   6
  291          m_sumb_d                              0.023865                          1   4
  292        fordep                                0.004156                            1   3
  293          setdij_                               0.004083                          6   4
  294            m_sumb_d                              0.002326                        6   5
  295          m_sumb_d                              0.000020                          1   4
  296        setdij_                               0.012296                           20   3
  297          m_sumb_d                              0.006618                         20   4
  298        set_dd_magatom                        0.000008                            1   3
  299        set_dd_paw                            0.007192                            1   3
  300          set_rsgf_all                          0.000002                          1   4
  301          m_sumb_d                              0.007089                          7   4
  302        strkin                                0.001691                            1   3
  303          m_sumb_d                              0.000496                          1   4
  304        strelo                                0.014224                            1   3
  305          m_sumb_d                              0.000899                          2   4
  306        strnlr                                0.900306                            1   3
  307          rspher_all                            0.021737                          9   4
  308          phaser                                0.000004                          9   4
  309          rpro_isp                              0.877908                          9   4
  310            fftwav_mpi                            0.872057                        9   5
  311              fft3d_mpi                             0.717307                      9   6
  312                fftbrc_mpi                            0.561583                    9   7
  313                  fftbas_plan_mpi                       0.561556                  9   8
  314                    dfftw_execute                         0.238895               27   9
  315                    map_forward                           0.313645               18   9
  316                      map_gather                            0.069290              9  10
  317                      m_alltoallv_z                         0.037973              9  10
  318                      map_scatter                           0.082542              9  10
  319            rpromu                                0.005299                        9   5
  320              rpromu_gemm                           0.001317                    126   6
  321              m_sumb_d                              0.001818                      9   6
  322          m_sumb_d                              0.000155                          1   4
  323        m_sumb_d                              0.026855                            7   3
  324        fft3d_mpi                             1.793510                           71   3
  325          fftbrc_mpi                            1.664443                         71   4
  326            fftbas_plan_mpi                       1.664206                       71   5
  327              dfftw_execute                         0.448812                    213   6
  328              map_forward                           0.664360                     70   6
  329                map_gather                            0.044963                   35   7
  330                m_alltoallv_z                         0.382015                   35   7
  331                map_scatter                           0.236167                   35   7
  332              map_backward                          0.493353                     72   6
  333                map_gather                            0.139336                   36   7
  334                m_alltoallv_z                         0.277336                   36   7
  335                map_scatter                           0.075224                   36   7
  336        ggaall_grid                           0.097395                            1   3
  337        forhar                                0.015500                            1   3
  338          m_sumb_d                              0.001191                          1   4
  339        strehar                               0.009476                            1   3
  340          m_sumb_d                              0.001271                          1   4
  341        m_bcast_d                             0.002182                            2   3
  342      potlok                               17.526813                              1   2
  343        fft3d_mpi                             8.155345                          329   3
  344          fftbrc_mpi                            7.564991                        329   4
  345            fftbas_plan_mpi                       7.563954                      329   5
  346              dfftw_execute                         2.008523                    987   6
  347              map_forward                           2.904622                    330   6
  348                map_gather                            0.293756                  166   7
  349                m_alltoallv_z                         1.529436                  166   7
  350                map_scatter                           1.075348                  166   7
  351              map_backward                          2.377129                    328   6
  352                map_gather                            0.606632                  164   7
  353                m_alltoallv_z                         1.435809                  164   7
  354                map_scatter                           0.329567                  164   7
  355        ggaall_grid                           1.509340                           33   3
  356        m_sumb_d                              0.064121                          166   3
  357        pothar                                0.004295                            1   3
  358          m_sumb_d                              0.000778                          1   4
  359        m_bcast_d                             0.016663                            1   3
  360      potlok_metagga                        0.000002                              1   2
  361      set_dd_magatom                        0.000001                              1   2
  362      set_dd_paw                            0.007947                              1   2
  363        set_rsgf_all                          0.000002                            1   3
  364        m_sumb_d                              0.007675                            7   3
 
 Flat profile
 ============
 
             routine name                   CPU           calls
 ---------------------------------------------------------------
 potlok                                188.407035          30
 total_time                             26.601309           1
 m_alltoallv_z                          23.829896        2807
 dfftw_execute                          21.328981        8244
 map_scatter                            12.478051        2807
 ggaall_grid                            10.955715          63
 map_gather                              8.426519        2807
 fft3d_mpi                               7.894044        2748
 force_and_stress                        6.199948           1
 m_sumb_d                                2.548249        1529
 fftwav_mpi                              2.390391         122
 fftbas_plan_mpi                         2.282173        2748
 map_forward                             1.616291        2792
 m_alltoall_d                            1.462394         639
 elmin_all                               1.124985           1
 edwav                                   1.059865          28
 vhamil                                  1.005633          36
 eccp                                    0.913116          61
 soft_charge                             0.662534          29
 m_bcast_z                               0.509755          49
 m_bcast_d                               0.472036          98
 lapack                                  0.370026          21
 pw_charge                               0.310489          29
 redis_pw                                0.272862         199
 orth1                                   0.231319         102
 augmentation_charge                     0.211603          29
 lincom                                  0.195364          86
 eddav                                   0.135307           5
 pothar                                  0.103697          30
 w1_dscal                                0.097584          14
 fftext_mpi                              0.078700          50
 w1_copy                                 0.072321          63
 set_charge                              0.068093          29
 ggemm                                   0.055532          21
 map_backward                            0.048301        2704
 brgrid                                  0.047937           1
 forloc                                  0.047690           1
 inisym                                  0.042773           1
 fft_gq                                  0.040863          29
 rspher_all                              0.032977          14
 stufak                                  0.032528           1
 setdij_                                 0.029201          57
 apply_precond                           0.022644          16
 eddiag                                  0.016934          15
 choleski                                0.016626          29
 racc0                                   0.015231          35
 forhar                                  0.014309           1
 kinhamil                                0.014118          36
 strelo                                  0.013325           1
 rpro1                                   0.011394          30
 fftbrc_mpi                              0.009692        2748
 rpro_isp                                0.008514          13
 strehar                                 0.008205           1
 redis_proj                              0.007474         440
 rpromu_gemm                             0.007080         182
 set_dd_paw                              0.005853          31
 setup_precond                           0.005782           5
 fewald                                  0.005013           1
 rpromu                                  0.004151          13
 densta                                  0.003006          40
 overl                                   0.002868         109
 orthch                                  0.002561          29
 newband                                 0.001888          26
 strkin                                  0.001195           1
 rsp                                     0.001018           1
 depsum                                  0.000720          29
 hamiltmu                                0.000618          21
 overl1                                  0.000590          21
 strnlr                                  0.000502           1
 redis_pw_all                            0.000419          28
 raccmu_                                 0.000350          21
 hamilt_local                            0.000239          15
 crpa_reader                             0.000236           1
 fornlr                                  0.000188           1
 set_rsgf_all                            0.000131          31
 redis_pw_over_bands                     0.000104          29
 potlok_metagga                          0.000103          30
 rcp                                     0.000103           1
 w1_projall                              0.000087          16
 fordep                                  0.000053           1
 rotate_active_occupied_orbital          0.000028           1
 truncate_high_frequency_w1              0.000025          26
 phaser                                  0.000022          32
 proall                                  0.000022           1
 posmap                                  0.000021           2
 vectorpot                               0.000015           1
 set_dd_magatom                          0.000009           2
 shift_bands_between_low_high            0.000001           1
 ---------------------------------------------------------------
  summed up times    324.897557020187     
 
 Accumulative profile
 ====================
 
             routine name                   CPU           calls
 ---------------------------------------------------------------
 total_time                            324.897557           1
 elmin_all                             270.240652           1
 potlok                                261.557342          30
 fft3d_mpi                              77.913948        2748
 fftbrc_mpi                             70.019904        2748
 fftbas_plan_mpi                        70.010212        2748
 map_forward                            27.154821        2792
 m_alltoallv_z                          23.829896        2807
 dfftw_execute                          21.328981        8244
 map_backward                           19.244236        2704
 fftwav_mpi                             12.716704         122
 map_scatter                            12.478051        2807
 ggaall_grid                            10.955715          63
 force_and_stress                        9.459339           1
 edwav                                   8.483809          28
 map_gather                              8.426519        2807
 eddav                                   7.426083           5
 set_charge                              7.019866          29
 soft_charge                             6.076466          29
 fftext_mpi                              3.210857          50
 m_sumb_d                                2.548249        1529
 kinhamil                                2.319514          36
 hamiltmu                                1.966187          21
 eddiag                                  1.846187          15
 m_alltoall_d                            1.462394         639
 hamilt_local                            1.375035          15
 redis_pw                                1.359360         199
 rpro_isp                                1.304240          13
 vhamil                                  1.005633          36
 eccp                                    0.924704          61
 strnlr                                  0.900306           1
 augmentation_charge                     0.862398          29
 newband                                 0.659684          26
 fft_gq                                  0.579324          29
 m_bcast_z                               0.509755          49
 m_bcast_d                               0.472036          98
 redis_proj                              0.383371         440
 lapack                                  0.370026          21
 fornlr                                  0.326807           1
 pw_charge                               0.310489          29
 orthch                                  0.274317          29
 set_dd_paw                              0.231932          31
 orth1                                   0.231319         102
 redis_pw_over_bands                     0.199066          29
 redis_pw_all                            0.198963          28
 lincom                                  0.195364          86
 pothar                                  0.134619          30
 proall                                  0.131111           1
 w1_dscal                                0.097584          14
 setdij_                                 0.077526          57
 w1_copy                                 0.072321          63
 ggemm                                   0.055532          21
 brgrid                                  0.047937           1
 forloc                                  0.047793           1
 inisym                                  0.042794           1
 densta                                  0.033478          40
 rspher_all                              0.032977          14
 stufak                                  0.032528           1
 racc0                                   0.028467          35
 apply_precond                           0.022644          16
 rpro1                                   0.017474          30
 choleski                                0.016626          29
 forhar                                  0.015500           1
 raccmu_                                 0.015218          21
 strelo                                  0.014224           1
 rpromu                                  0.013786          13
 depsum                                  0.012910          29
 strehar                                 0.009476           1
 w1_projall                              0.008433          16
 rpromu_gemm                             0.007080         182
 fewald                                  0.006953           1
 setup_precond                           0.006130           5
 fordep                                  0.004156           1
 overl                                   0.002868         109
 strkin                                  0.001691           1
 rsp                                     0.001018           1
 overl1                                  0.000590          21
 crpa_reader                             0.000236           1
 set_rsgf_all                            0.000131          31
 potlok_metagga                          0.000103          30
 rcp                                     0.000103           1
 rotate_active_occupied_orbital          0.000028           1
 truncate_high_frequency_w1              0.000025          26
 phaser                                  0.000022          32
 posmap                                  0.000021           2
 vectorpot                               0.000015           1
 set_dd_magatom                          0.000009           2
 shift_bands_between_low_high            0.000001           1
 ---------------------------------------------------------------
 
Profiling took   0.076499  0.035036  0.015962  0.014922 seconds
Profiling took   0.115213 seconds
