 vasp.6.3.2 27Jun22 (build Jan 03 2024 23:25:20) gamma-only                     
  
 executed on           IFC15_impi date 2024.06.01  05:01:46
 running 1536 mpi-ranks, with    1 threads/rank
 distrk:  each k-point on 1536 cores,    1 groups
 distr:  one band on NCORE=  32 cores,   48 groups


--------------------------------------------------------------------------------------------------------


 INCAR:
   ENCUT = 500.000000
   SIGMA = 0.010000
   EDIFF = 1.00e-05
   ALGO = A
   ISMEAR = 0
   NELM = 200
   NSW = 999
   NCORE = 32
   LCHARG = .TRUE.
   LWAVE = .TRUE.
   LREAL = Auto
   IBRION = 5
   POTIM = 0.015
   NFREE = 2
   ISYM = 0
   EDIFFG = -0.05
   GGA = BF
   LUSE_VDW = .TRUE.
   ZAB_VDW = -1.8867
   LBEEFENS = .TRUE.
   DIPOL = 0.5 0.5 0.65
   IDIPOL = 3
   LDIPOL = .TRUE.

 POTCAR:    PAW_PBE Au 04Oct2007                  
 POTCAR:    PAW_PBE O 08Apr2002                   
 POTCAR:    PAW_PBE Sr_sv 07Sep2000               
 POTCAR:    PAW_PBE Ti_sv 26Sep2005               
 -----------------------------------------------------------------------------
|                                                                             |
|               ----> ADVICE to this user running VASP <----                  |
|                                                                             |
|     You have switched on vdW-DFT.                                           |
|     This routine was written and supplied by Jiri Klimes. We recommend      |
|     that you carefully read and cite the following publications:            |
|       J. Klimes, D.R. Bowler, A. Michelides                                 |
|          J. Phys.: Cond Matt. 22 022201 (2010)                              |
|       J. Klimes, D.R. Bowler, A. Michelides                                 |
|          Phys. Rev. B. 83, 195131 (2011)                                    |
|     and references therein.                                                 |
|                                                                             |
 -----------------------------------------------------------------------------

 POTCAR:    PAW_PBE Au 04Oct2007                  
   SHA256 =  d0044ae04e2bdce24051b198fc5c053d722a5bc6fe3c3b100514a13fc5d2db88 Au/POTCAR             
   COPYR  = (c) Copyright 04Oct2007 Georg Kresse                                                    
   COPYR  = This file is part of the software VASP. Any use, copying, and all other rights are regul
   COPYR  = If you do not have a valid VASP license, you may not use, copy or distribute this file. 
   VRHFIN =Au: s1d10                                                                                
   LEXCH  = PE                                                                                      
   EATOM  =   926.0867 eV,   68.0654 Ry                                                             
                                                                                                    
   TITEL  = PAW_PBE Au 04Oct2007                                                                    
   LULTRA =        F    use ultrasoft PP ?                                                          
   IUNSCR =        1    unscreen: 0-lin 1-nonlin 2-no                                               
   RPACOR =    2.330    partial core radius                                                         
   POMASS =  196.966; ZVAL   =   11.000    mass and valenz                                          
   RCORE  =    2.500    outmost cutoff radius                                                       
   RWIGS  =    2.840; RWIGS  =    1.503    wigner-seitz radius (au A)                               
   ENMAX  =  229.943; ENMIN  =  172.457 eV                                                          
   ICORE  =        3    local potential                                                             
   LCOR   =        T    correct aug charges                                                         
   LPAW   =        T    paw PP                                                                      
   EAUG   =  356.670                                                                                
   DEXC   =    0.000                                                                                
   RMAX   =    2.562    core radius for proj-oper                                                   
   RAUG   =    1.300    factor for augmentation sphere                                              
   RDEP   =    2.598    radius for radial grids                                                     
   RDEPT  =    2.193    core radius for aug-charge                                                  
                                                                                                    
   Atomic configuration                                                                             
   16 entries                                                                                       
     n  l   j            E        occ.                                                              
     1  0  0.50    -80748.5001   2.0000                                                             
     2  0  0.50    -14244.7466   2.0000                                                             
     2  1  1.50    -12310.9591   6.0000                                                             
     3  0  0.50     -3362.1768   2.0000                                                             
     3  1  1.50     -2801.5463   6.0000                                                             
     3  2  2.50     -2203.8206  10.0000                                                             
     4  0  0.50      -729.8168   2.0000                                                             
     4  1  1.50      -546.0527   6.0000                                                             
     4  2  2.50      -325.7302  10.0000                                                             
     4  3  3.50       -81.1472  14.0000                                                             
     5  0  0.50      -108.3201   2.0000                                                             
     5  1  1.50       -59.7479   6.0000                                                             
     5  2  2.50        -6.8783  10.0000                                                             
     6  0  0.50        -5.7602   1.0000                                                             
     6  1  1.50        -6.8029   0.0000                                                             
     5  3  2.50        -1.3606   0.0000                                                             
   Description                                                                                      
     l       E           TYP  RCUT    TYP  RCUT                                                     
     2     -6.8782861     23  2.500                                                                 
     2     -8.2388687     23  2.500                                                                 
     0     -5.7601759     23  2.500                                                                 
     0     -0.8493231     23  2.500                                                                 
     1     -2.7211652     23  2.500                                                                 
     1     27.2116520     23  2.500                                                                 
     3     -1.3605826     23  2.500                                                                 
  local pseudopotential read in
  partial core-charges read in
  partial kinetic energy density read in
  atomic valenz-charges read in
  non local Contribution for L=           2  read in
    real space projection operators read in
  non local Contribution for L=           2  read in
    real space projection operators read in
  non local Contribution for L=           0  read in
    real space projection operators read in
  non local Contribution for L=           0  read in
    real space projection operators read in
  non local Contribution for L=           1  read in
    real space projection operators read in
  non local Contribution for L=           1  read in
    real space projection operators read in
    PAW grid and wavefunctions read in
 
   number of l-projection  operators is LMAX  =           6
   number of lm-projection operators is LMMAX =          18
 
 POTCAR:    PAW_PBE O 08Apr2002                   
   SHA256 =  818f92134a0a090dccd8ba1447fa70422a3b330e708bb4f08108d8ae51209ddf O/POTCAR              
   COPYR  = (c) Copyright 08Apr2002 Georg Kresse                                                    
   COPYR  = This file is part of the software VASP. Any use, copying, and all other rights are regul
   COPYR  = If you do not have a valid VASP license, you may not use, copy or distribute this file. 
   VRHFIN =O: s2p4                                                                                  
   LEXCH  = PE                                                                                      
   EATOM  =   432.3788 eV,   31.7789 Ry                                                             
                                                                                                    
   TITEL  = PAW_PBE O 08Apr2002                                                                     
   LULTRA =        F    use ultrasoft PP ?                                                          
   IUNSCR =        1    unscreen: 0-lin 1-nonlin 2-no                                               
   RPACOR =    1.200    partial core radius                                                         
   POMASS =   16.000; ZVAL   =    6.000    mass and valenz                                          
   RCORE  =    1.520    outmost cutoff radius                                                       
   RWIGS  =    1.550; RWIGS  =    0.820    wigner-seitz radius (au A)                               
   ENMAX  =  400.000; ENMIN  =  300.000 eV                                                          
   ICORE  =        2    local potential                                                             
   LCOR   =        T    correct aug charges                                                         
   LPAW   =        T    paw PP                                                                      
   EAUG   =  605.392                                                                                
   DEXC   =    0.000                                                                                
   RMAX   =    1.553    core radius for proj-oper                                                   
   RAUG   =    1.300    factor for augmentation sphere                                              
   RDEP   =    1.550    radius for radial grids                                                     
   RDEPT  =    1.329    core radius for aug-charge                                                  
                                                                                                    
   Atomic configuration                                                                             
    4 entries                                                                                       
     n  l   j            E        occ.                                                              
     1  0  0.50      -514.6923   2.0000                                                             
     2  0  0.50       -23.9615   2.0000                                                             
     2  1  0.50        -9.0305   4.0000                                                             
     3  2  1.50        -9.5241   0.0000                                                             
   Description                                                                                      
     l       E           TYP  RCUT    TYP  RCUT                                                     
     0    -23.9615318     23  1.200                                                                 
     0     -9.5240782     23  1.200                                                                 
     1     -9.0304911     23  1.520                                                                 
     1      8.1634956     23  1.520                                                                 
     2     -9.5240782      7  1.500                                                                 
  local pseudopotential read in
  partial core-charges read in
  partial kinetic energy density read in
  kinetic energy density of atom read in
  atomic valenz-charges read in
  non local Contribution for L=           0  read in
    real space projection operators read in
  non local Contribution for L=           0  read in
    real space projection operators read in
  non local Contribution for L=           1  read in
    real space projection operators read in
  non local Contribution for L=           1  read in
    real space projection operators read in
    PAW grid and wavefunctions read in
 
   number of l-projection  operators is LMAX  =           4
   number of lm-projection operators is LMMAX =           8
 
 POTCAR:    PAW_PBE Sr_sv 07Sep2000               
   SHA256 =  a8389d3481648516ee67182ee030b298d280b37e29cbbf2d8595f040d757c710 Sr_sv/POTCAR          
   COPYR  = (c) Copyright 07Sep2000 Georg Kresse                                                    
   COPYR  = This file is part of the software VASP. Any use, copying, and all other rights are regul
   COPYR  = If you do not have a valid VASP license, you may not use, copy or distribute this file. 
   VRHFIN =Sr: 4s4p5s                                                                               
   LEXCH  = PE                                                                                      
   EATOM  =   843.0319 eV,   61.9611 Ry                                                             
                                                                                                    
   TITEL  = PAW_PBE Sr_sv 07Sep2000                                                                 
   LULTRA =        F    use ultrasoft PP ?                                                          
   IUNSCR =        1    unscreen: 0-lin 1-nonlin 2-no                                               
   RPACOR =    2.200    partial core radius                                                         
   POMASS =   87.620; ZVAL   =   10.000    mass and valenz                                          
   RCORE  =    2.500    outmost cutoff radius                                                       
   RWIGS  =    4.040; RWIGS  =    2.138    wigner-seitz radius (au A)                               
   ENMAX  =  229.353; ENMIN  =  172.014 eV                                                          
   RCLOC  =    2.201    cutoff for local pot                                                        
   LCOR   =        T    correct aug charges                                                         
   LPAW   =        T    paw PP                                                                      
   EAUG   =  366.804                                                                                
   DEXC   =    0.000                                                                                
   RMAX   =    2.547    core radius for proj-oper                                                   
   RAUG   =    1.300    factor for augmentation sphere                                              
   RDEP   =    2.562    radius for radial grids                                                     
   RDEPT  =    2.128    core radius for aug-charge                                                  
                                                                                                    
   Atomic configuration                                                                             
   10 entries                                                                                       
     n  l   j            E        occ.                                                              
     1  0  0.50    -15934.8930   2.0000                                                             
     2  0  0.50     -2157.6250   2.0000                                                             
     2  1  1.50     -1917.0034   6.0000                                                             
     3  0  0.50      -333.7288   2.0000                                                             
     3  1  1.50      -256.0992   6.0000                                                             
     3  2  2.50      -127.9971  10.0000                                                             
     4  0  0.50       -40.8953   2.0000                                                             
     5  0  0.50        -3.5257   1.9990                                                             
     4  1  1.50       -22.8179   6.0000                                                             
     4  2  1.50        -1.2815   0.0010                                                             
   Description                                                                                      
     l       E           TYP  RCUT    TYP  RCUT                                                     
     0    -40.8953213     23  2.480                                                                 
     0     -3.5257161     23  2.480                                                                 
     1    -22.8178632     23  2.500                                                                 
     1    -24.1784458     23  2.500                                                                 
     2     -1.2814598     23  2.500                                                                 
     2      0.2279365     23  2.500                                                                 
  local pseudopotential read in
  partial core-charges read in
  partial kinetic energy density read in
  atomic valenz-charges read in
  non local Contribution for L=           0  read in
    real space projection operators read in
  non local Contribution for L=           0  read in
    real space projection operators read in
  non local Contribution for L=           1  read in
    real space projection operators read in
  non local Contribution for L=           1  read in
    real space projection operators read in
  non local Contribution for L=           2  read in
    real space projection operators read in
  non local Contribution for L=           2  read in
    real space projection operators read in
    PAW grid and wavefunctions read in
 
   number of l-projection  operators is LMAX  =           6
   number of lm-projection operators is LMMAX =          18
 
 POTCAR:    PAW_PBE Ti_sv 26Sep2005               
   SHA256 =  4d747badb5a5ea28d858fbac70885b3f8929d6fd9e5b0dbe1ecb9878dc164da1 Ti_sv/POTCAR          
   COPYR  = (c) Copyright 26Sep2005 Georg Kresse                                                    
   COPYR  = This file is part of the software VASP. Any use, copying, and all other rights are regul
   COPYR  = If you do not have a valid VASP license, you may not use, copy or distribute this file. 
   VRHFIN =Ti: 3p4s3d                                                                               
   LEXCH  = PE                                                                                      
   EATOM  =  1588.0892 eV,  116.7213 Ry                                                             
                                                                                                    
   TITEL  = PAW_PBE Ti_sv 26Sep2005                                                                 
   LULTRA =        F    use ultrasoft PP ?                                                          
   IUNSCR =        1    unscreen: 0-lin 1-nonlin 2-no                                               
   RPACOR =    2.000    partial core radius                                                         
   POMASS =   47.880; ZVAL   =   12.000    mass and valenz                                          
   RCORE  =    2.300    outmost cutoff radius                                                       
   RWIGS  =    2.300; RWIGS  =    1.217    wigner-seitz radius (au A)                               
   ENMAX  =  274.610; ENMIN  =  205.957 eV                                                          
   ICORE  =        3    local potential                                                             
   LCOR   =        T    correct aug charges                                                         
   LPAW   =        T    paw PP                                                                      
   EAUG   =  482.848                                                                                
   RMAX   =    2.348    core radius for proj-oper                                                   
   RAUG   =    1.300    factor for augmentation sphere                                              
   RDEP   =    2.381    radius for radial grids                                                     
   RDEPT  =    1.930    core radius for aug-charge                                                  
                                                                                                    
   Atomic configuration                                                                             
    8 entries                                                                                       
     n  l   j            E        occ.                                                              
     1  0  0.50     -4865.3608   2.0000                                                             
     2  0  0.50      -533.1368   2.0000                                                             
     2  1  1.50      -440.5031   6.0000                                                             
     3  0  0.50       -59.3186   2.0000                                                             
     4  0  0.50        -3.7291   1.0000                                                             
     3  1  1.50       -35.7012   6.0000                                                             
     3  2  2.50        -1.9157   3.0000                                                             
     4  3  2.50        -1.3606   0.0000                                                             
   Description                                                                                      
     l       E           TYP  RCUT    TYP  RCUT                                                     
     0    -59.3185931     23  1.800                                                                 
     0     -3.7290822     23  2.300                                                                 
     1    -35.7012045     23  2.300                                                                 
     1     -1.3605826     23  2.300                                                                 
     2     -1.9156920     23  2.300                                                                 
     2     -0.0236318     23  2.300                                                                 
     3     -1.3605826     23  2.300                                                                 
  local pseudopotential read in
  partial core-charges read in
  partial kinetic energy density read in
  atomic valenz-charges read in
  non local Contribution for L=           0  read in
    real space projection operators read in
  non local Contribution for L=           0  read in
    real space projection operators read in
  non local Contribution for L=           1  read in
    real space projection operators read in
  non local Contribution for L=           1  read in
    real space projection operators read in
  non local Contribution for L=           2  read in
    real space projection operators read in
  non local Contribution for L=           2  read in
    real space projection operators read in
    PAW grid and wavefunctions read in
 
   number of l-projection  operators is LMAX  =           6
   number of lm-projection operators is LMMAX =          18
 
 Optimization of the real space projectors (new method)

 maximal supplied QI-value         = 15.12
 optimisation between [QCUT,QGAM] = [ 11.34, 22.83] = [ 36.00,145.93] Ry 
 Optimized for a Real-space Cutoff    1.39 Angstroem

   l    n(q)    QCUT    max X(q) W(low)/X(q) W(high)/X(q)  e(spline) 
   2      9    11.338    60.898    0.39E-03    0.42E-03    0.21E-06
   2      9    11.338    58.894    0.40E-03    0.42E-03    0.22E-06
   0      9    11.338   109.617    0.13E-03    0.20E-04    0.13E-06
   0      9    11.338    75.026    0.13E-03    0.20E-04    0.13E-06
   1      9    11.338    16.344    0.33E-04    0.24E-03    0.18E-06
   1      9    11.338    10.160    0.26E-04    0.19E-03    0.15E-06
 Optimization of the real space projectors (new method)

 maximal supplied QI-value         = 24.76
 optimisation between [QCUT,QGAM] = [ 11.39, 22.77] = [ 36.31,145.25] Ry 
 Optimized for a Real-space Cutoff    1.00 Angstroem

   l    n(q)    QCUT    max X(q) W(low)/X(q) W(high)/X(q)  e(spline) 
   0      7    11.387    20.381    0.39E-03    0.13E-02    0.15E-06
   0      7    11.387    15.268    0.42E-03    0.14E-02    0.17E-06
   1      6    11.387     5.964    0.41E-03    0.11E-02    0.17E-06
   1      6    11.387     5.382    0.39E-03    0.87E-03    0.15E-06
 Optimization of the real space projectors (new method)

 maximal supplied QI-value         = 15.12
 optimisation between [QCUT,QGAM] = [ 11.34, 22.83] = [ 36.00,145.93] Ry 
 Optimized for a Real-space Cutoff    1.56 Angstroem

   l    n(q)    QCUT    max X(q) W(low)/X(q) W(high)/X(q)  e(spline) 
   0     11    11.338    11.565    0.26E-04    0.80E-05    0.70E-07
   0     11    11.338    10.214    0.41E-04    0.15E-04    0.15E-06
   1     10    11.338   189.983    0.18E-03    0.52E-04    0.42E-06
   1     10    11.338   193.105    0.19E-03    0.52E-04    0.42E-06
   2     10    11.338   115.941    0.22E-03    0.42E-03    0.43E-06
   2     10    11.338    76.444    0.21E-03    0.41E-03    0.42E-06
 Optimization of the real space projectors (new method)

 maximal supplied QI-value         = 16.25
 optimisation between [QCUT,QGAM] = [ 11.38, 22.75] = [ 36.24,144.96] Ry 
 Optimized for a Real-space Cutoff    1.27 Angstroem

   l    n(q)    QCUT    max X(q) W(low)/X(q) W(high)/X(q)  e(spline) 
   0      9    11.376    12.277    0.53E-04    0.25E-04    0.25E-07
   0      9    11.376    11.419    0.89E-04    0.67E-05    0.35E-07
   1      8    11.376     4.010    0.13E-03    0.11E-03    0.29E-07
   1      8    11.376     6.182    0.94E-04    0.19E-03    0.11E-06
   2      8    11.376    47.177    0.13E-03    0.88E-03    0.24E-06
   2      8    11.376    42.437    0.13E-03    0.86E-03    0.23E-06
 -----------------------------------------------------------------------------
|                                                                             |
|               ----> ADVICE to this user running VASP <----                  |
|                                                                             |
|     You enforced a specific xc type in the INCAR file but a different       |
|     type was found in the POTCAR file.                                      |
|     I HOPE YOU KNOW WHAT YOU ARE DOING!                                     |
|                                                                             |
 -----------------------------------------------------------------------------

  PAW_PBE Au 04Oct2007                  :
 energy of atom  1       EATOM= -926.0867
 kinetic energy error for atom=    0.0042 (will be added to EATOM!!)
  PAW_PBE O 08Apr2002                   :
 energy of atom  2       EATOM= -432.3788
 kinetic energy error for atom=    0.0224 (will be added to EATOM!!)
  PAW_PBE Sr_sv 07Sep2000               :
 energy of atom  3       EATOM= -843.0319
 kinetic energy error for atom=    0.0012 (will be added to EATOM!!)
  PAW_PBE Ti_sv 26Sep2005               :
 energy of atom  4       EATOM=-1588.0892
 kinetic energy error for atom=    0.0046 (will be added to EATOM!!)
 
 
 POSCAR: Au  O Sr Ti
  positions in cartesian coordinates
  No initial velocities read in
 exchange correlation table for  LEXCH =       17
   RHO(1)=    0.500       N(1)  =     2000
   RHO(2)=  100.500       N(2)  =     4000

 VTST: version 4.1, (05/19/21)

 CHAIN: initializing optimizer
 
 OPT: Using VASP Dynamics algorithm
 CHAIN: Read ICHAIN            0
 
 POSCAR: Au  O Sr Ti
  positions in cartesian coordinates
  No initial velocities read in
 


--------------------------------------------------------------------------------------------------------


 ion  position               nearest neighbor table
   1  0.719  0.620  0.754-  49 2.71  48 2.72  40 2.78  29 2.83  18 2.83   3 2.96  19 3.05
   2  0.705  0.806  0.689-  74 2.04 117 2.05  10 2.64  47 2.80 516 3.14  49 3.23 430 3.81 429 4.18

   3  0.657  0.553  0.813-  18 2.85  33 2.86  38 2.86   5 2.87  17 2.91   1 2.96  48 3.20  19 3.46

   4  0.368  0.694  0.820-  35 2.77  24 2.79  13 2.84  41 2.85  27 2.89  23 2.94
   5  0.571  0.608  0.857-   7 2.77  48 2.81   3 2.87  38 2.89  20 2.91  24 2.93  33 2.96  39 3.46

   6  0.664  0.354  0.752-  30 2.66  36 2.80  28 2.86  12 3.45  17 3.52
   7  0.472  0.561  0.879-   5 2.77  43 2.78  24 2.79  33 2.81  13 2.81
   8  0.516  0.502  0.734-  38 2.80  15 2.81  12 2.85  22 2.87  37 2.90  33 2.97  11 3.10  43 3.17
                            36 3.27  19 3.58 434 4.18
   9  0.284  0.470  0.703-  52 2.06  45 2.78  14 2.83  11 2.91  34 3.07 440 3.54 432 4.10
  10  0.669  0.745  0.749-   2 2.64  49 2.68  32 2.74  48 2.78  29 3.08  47 3.13  21 3.25
  11  0.398  0.506  0.690- 188 2.03  78 2.12  45 2.77  44 2.91   9 2.91  14 2.99  22 3.04   8 3.10
                           440 3.39  37 3.58  42 3.60 434 3.78
  12  0.613  0.455  0.698-  59 2.03  17 2.77  36 2.79  30 2.83  19 2.83  28 2.85   8 2.85   6 3.45
                           439 3.60 434 4.22
  13  0.376  0.594  0.834-  27 2.81   7 2.81   4 2.84  22 2.85  14 2.85  24 2.90  43 3.03
  14  0.327  0.531  0.770-  45 2.82   9 2.83  13 2.85  27 2.87  34 2.95  43 2.98  44 2.98  11 2.99
                            22 3.09
  15  0.488  0.414  0.775-  42 2.73  36 2.79   8 2.81  28 2.85  45 2.86  43 2.94  33 3.41
  16  0.428  0.759  0.699- 110 2.03  25 2.73  50 2.75  23 2.82  46 2.85  21 2.93  31 3.46 445 3.99
                           441 4.16
  17  0.700  0.477  0.757-  12 2.77  30 2.79  36 2.80  18 2.81  40 2.87   3 2.91  19 3.02   6 3.52

  18  0.775  0.543  0.796-  40 2.72  17 2.81   1 2.83   3 2.85
  19  0.647  0.552  0.697-  87 2.20  40 2.80  12 2.83  29 2.87  38 2.99  17 3.02   1 3.05  37 3.33
                             3 3.46 439 3.49   8 3.58
  20  0.566  0.712  0.861-  48 2.79  32 2.81  24 2.84  41 2.88  39 2.91   5 2.91
  21  0.547  0.731  0.702- 215 2.10  39 2.74  29 2.87  25 2.88  16 2.93  47 2.94  32 3.15  10 3.25
                            46 3.43 445 3.50
  22  0.443  0.580  0.756-  13 2.85  38 2.85  25 2.85   8 2.87  44 2.89  37 2.90  43 2.91  11 3.04
                            14 3.09  39 3.41
  23  0.373  0.789  0.778-  35 2.75  50 2.79  41 2.81  16 2.82  46 2.86   4 2.94  31 3.10
  24  0.464  0.659  0.864-   7 2.79   4 2.79  20 2.84  41 2.89  13 2.90   5 2.93  39 2.94
  25  0.455  0.664  0.703-  76 2.12  39 2.69  37 2.70  16 2.73  22 2.85  21 2.88  44 3.04 445 3.61

  26  0.256  0.674  0.695-  60 2.03 181 2.10  35 2.70  34 2.83  27 2.90  44 3.00  31 3.51 441 3.59
                           436 3.70
  27  0.290  0.629  0.778-  34 2.80  35 2.81  13 2.81  14 2.87   4 2.89  26 2.90  44 2.90
  28  0.556  0.366  0.711- 180 2.13  42 2.78  15 2.85  12 2.85   6 2.86  36 3.13 433 3.94
  29  0.625  0.653  0.704-  61 2.08  49 2.80   1 2.83  21 2.87  19 2.87  38 2.92  48 2.93  10 3.08
                            37 3.29  39 3.53 429 3.70
  30  0.719  0.407  0.692-  73 2.06 114 2.08   6 2.66  17 2.79  12 2.83 517 3.05 439 4.02 438 4.04

  31  0.288  0.797  0.699- 181 2.06  67 2.07  35 2.78  50 2.82  23 3.10  16 3.46  26 3.51 441 4.26
                           437 4.28
  32  0.577  0.781  0.793-  46 2.74  10 2.74  47 2.78  20 2.81  41 2.99  39 3.12  21 3.15  48 3.50

  33  0.551  0.508  0.829-  36 2.77   7 2.81   3 2.86  43 2.87   5 2.96   8 2.97  38 3.02  15 3.41

  34  0.243  0.574  0.709- 182 2.11  44 2.68  27 2.80  26 2.83  14 2.95   9 3.07 432 4.17
  35  0.282  0.728  0.766-  26 2.70  23 2.75   4 2.77  31 2.78  27 2.81
  36  0.603  0.431  0.788-  33 2.77  15 2.79  12 2.79   6 2.80  17 2.80  28 3.13   8 3.27
  37  0.515  0.586  0.678-  87 2.11 120 2.16  25 2.70  38 2.78  22 2.90   8 2.90 505 3.13  29 3.29
                            19 3.33 434 3.54  11 3.58 445 4.05
  38  0.562  0.589  0.763-  37 2.78   8 2.80  22 2.85   3 2.86   5 2.89  39 2.91  29 2.92  19 2.99
                            48 3.00  33 3.02
  39  0.514  0.684  0.777-  25 2.69  21 2.74  41 2.84  20 2.91  38 2.91  24 2.94  48 3.01  32 3.12
                            22 3.41   5 3.46  29 3.53
  40  0.765  0.544  0.706- 113 2.01  18 2.72   1 2.78  19 2.80  17 2.87 421 3.72 439 4.21
  41  0.463  0.756  0.830-  23 2.81  39 2.84   4 2.85  20 2.88  24 2.89  46 2.93  32 2.99
  42  0.441  0.383  0.697- 189 2.01  78 2.15  15 2.73  28 2.78  45 2.85  11 3.60 433 3.90 442 4.34

  43  0.431  0.498  0.816-   7 2.78  45 2.80  33 2.87  22 2.91  15 2.94  14 2.98  13 3.03   8 3.17

  44  0.350  0.602  0.697-  76 2.10  34 2.68  22 2.89  27 2.90  11 2.91  14 2.98  26 3.00  25 3.04
                           441 4.10 440 4.29
  45  0.373  0.439  0.756-  11 2.77   9 2.78  43 2.80  14 2.82  42 2.85  15 2.86
  46  0.483  0.824  0.757-  32 2.74  50 2.83  16 2.85  23 2.86  41 2.93  47 2.95  21 3.43
  47  0.594  0.828  0.713-  89 2.08  32 2.78   2 2.80  21 2.94  46 2.95  10 3.13 430 4.18 425 4.33

  48  0.636  0.666  0.800-   1 2.72  10 2.78  20 2.79   5 2.81  29 2.93  38 3.00  39 3.01   3 3.20
                            32 3.50
  49  0.733  0.692  0.694-  75 2.10 117 2.10  10 2.68   1 2.71  29 2.80   2 3.23 429 3.42 385 3.74

  50  0.388  0.852  0.706-  77 2.07  16 2.75  23 2.79  31 2.82  46 2.83 437 3.65 425 4.18
  51  0.832  0.699  0.500- 547 1.89 487 2.05 460 2.76 395 2.79 431 2.86 385 3.10
  52  0.249  0.453  0.642- 512 1.94   9 2.06 432 2.59 440 2.67
  53  0.500  0.696  0.500- 491 1.98 543 1.98 418 2.70 466 2.80 445 2.82 382 2.95
  54  0.500  0.898  0.501- 522 1.98 546 1.99 382 2.68 465 2.82 407 2.87 425 3.24
  55  0.500  0.498  0.500- 492 1.96 544 2.00 423 2.79 469 2.79 418 2.83 434 2.86
  56  0.917  0.650  0.361- 551 1.97 451 2.79 395 2.79
  57  0.251  0.249  0.641- 510 1.80 443 2.49 442 2.50
  58  0.833  0.900  0.499- 494 1.94 488 2.02 450 2.75 431 2.76 406 2.82
  59  0.583  0.455  0.634- 508 1.97  12 2.03 434 2.54 439 2.67
  60  0.248  0.659  0.629- 506 1.99  26 2.03 441 2.55 436 2.55
  61  0.592  0.651  0.640- 505 1.98  29 2.08 429 2.64 445 2.84
  62  0.582  0.252  0.639- 509 1.80 438 2.51 433 2.52
  63  0.914  0.850  0.642- 500 1.79 422 2.48 398 2.52
  64  0.915  0.450  0.639- 486 1.80 428 2.51 421 2.52
  65  0.833  0.498  0.499- 499 1.89 483 2.04 446 2.77 420 2.78 460 2.83 421 3.15
  66  0.914  0.649  0.643- 533 1.79 427 2.45 385 2.55
  67  0.261  0.840  0.647- 507 1.97  31 2.07 437 2.80 435 2.91
  68  0.833  0.300  0.500- 511 1.95 545 2.02 420 2.75 464 2.79 417 2.81
  69  0.418  0.252  0.639- 520 1.81 442 2.51 433 2.53
  70  0.168  0.700  0.500- 496 1.89 490 2.06 419 2.79 463 2.79 383 2.83 436 3.07
  71  0.916  0.250  0.641- 504 1.80 426 2.49 394 2.50
  72  0.747  0.253  0.639- 518 1.80 438 2.48 426 2.49
  73  0.747  0.450  0.640- 517 2.00  30 2.06 439 2.63 421 2.74
  74  0.741  0.848  0.640- 516 1.98   2 2.04 430 2.59 422 2.72
  75  0.752  0.657  0.635- 515 1.92  49 2.10 385 2.61 429 2.68
  76  0.399  0.641  0.652-  44 2.10  25 2.12 485 2.17 441 2.80 445 3.44
  77  0.413  0.850  0.640- 514 1.95  50 2.07 437 2.62 425 2.68
  78  0.427  0.444  0.656-  11 2.12  42 2.15 513 2.34 434 2.94 440 3.40
  79  0.501  0.805  0.593- 560 1.99 514 2.02 382 2.67 425 2.72 445 2.93
  80  0.833  0.202  0.592- 518 1.99 504 2.01 417 2.59 426 2.86 400 2.95
  81  0.833  0.603  0.590- 515 1.83 533 2.06 460 2.60 385 2.78 421 2.96
  82  0.832  0.397  0.591- 517 1.84 486 2.12 420 2.65 426 2.83 421 2.85
  83  0.830  0.800  0.593- 516 1.86 500 2.11 431 2.72 385 2.79 422 2.89
  84  0.582  0.948  0.638- 481 1.80 425 2.49 430 2.51
  85  0.917  0.349  0.641- 486 1.79 426 2.48 394 2.52
  86  0.583  0.050  0.641- 481 1.79 403 2.50 402 2.51
  87  0.582  0.550  0.646- 505 2.11  37 2.11  19 2.20 434 2.84 439 3.00
  88  0.167  0.501  0.498- 497 1.90 498 2.02 467 2.72 419 2.77 386 2.86 432 3.30
  89  0.589  0.848  0.646- 560 1.94  47 2.08 430 2.66 425 2.81
  90  0.416  0.455  0.552- 513 1.96 492 1.98 434 2.68 440 2.73 381 2.96 423 2.99
  91  0.417  0.948  0.639- 473 1.81 425 2.53 437 2.57
  92  0.420  0.652  0.556- 485 1.90 491 2.13 445 2.65 441 2.70 418 2.93 388 3.04
  93  0.084  0.450  0.640- 519 1.80 428 2.49 432 2.50
  94  0.749  0.449  0.548- 499 1.98 517 1.98 439 2.67 396 2.74 420 2.83 421 3.01
  95  0.749  0.248  0.545- 511 1.83 518 2.19 391 2.66 417 2.70 438 3.14 426 3.34
  96  0.414  0.849  0.548- 514 1.94 522 1.99 392 2.71 382 2.79 437 2.91 425 3.10
  97  0.747  0.646  0.545- 547 1.95 515 1.98 390 2.62 460 2.77 429 2.85 385 3.22
  98  0.748  0.847  0.546- 516 1.83 494 2.05 389 2.68 431 2.77 430 3.09 422 3.30
  99  0.251  0.251  0.547- 495 1.84 510 2.23 393 2.70 387 2.74 442 3.03 443 3.27
 100  0.249  0.451  0.546- 497 1.85 512 2.29 440 2.65 386 2.73 381 2.74 432 3.03
 101  0.252  0.647  0.544- 496 1.92 506 2.04 388 2.64 419 2.79 441 2.87 436 3.20
 102  0.253  0.850  0.551- 507 1.82 550 2.09 392 2.78 437 2.86 383 2.89 435 3.19
 103  0.583  0.250  0.546- 523 1.84 509 2.22 384 2.72 391 2.72 433 2.96 438 3.09
 104  0.584  0.449  0.546- 544 1.90 508 2.10 423 2.75 396 2.75 434 2.78 439 2.87
 105  0.586  0.852  0.551- 546 1.94 560 2.05 389 2.76 382 2.82 430 2.88 425 3.01
 106  0.581  0.648  0.550- 505 1.89 543 2.10 445 2.69 418 2.76 429 2.82 390 2.87
 107  0.917  0.650  0.546- 487 1.84 533 2.22 397 2.68 460 2.70 385 2.86
 108  0.915  0.850  0.547- 488 1.85 500 2.19 431 2.66 447 2.72 422 3.21 398 3.32
 109  0.416  0.252  0.547- 493 1.84 520 2.24 393 2.76 384 2.77 433 2.93 442 3.06
 110  0.422  0.741  0.634-  16 2.03 514 2.03 445 2.55 441 2.64
 111  0.085  0.850  0.547- 489 1.85 502 2.18 383 2.67 447 2.74 435 3.18 398 3.33
 112  0.086  0.450  0.547- 498 1.84 519 2.24 386 2.68 448 2.75 432 2.90 428 3.36
 113  0.756  0.549  0.639- 515 1.98  40 2.01 421 2.60 439 2.80
 114  0.745  0.355  0.647- 517 1.99  30 2.08 438 2.66 426 2.71
 115  0.254  0.349  0.641- 512 1.74 442 2.51 443 2.54
 116  0.748  0.948  0.639- 474 1.80 422 2.49 430 2.53
 117  0.754  0.754  0.658-   2 2.05  49 2.10 516 2.41 385 3.02 429 3.19
 118  0.500  0.200  0.591- 520 2.00 509 2.01 384 2.58 433 2.76 403 2.90
 119  0.498  0.403  0.590- 513 1.98 508 2.05 434 2.63 423 2.65 433 2.98
 120  0.498  0.603  0.609- 485 2.10  37 2.16 505 2.25 445 2.73 434 3.00 418 3.26
 121  0.252  0.950  0.545- 550 1.83 472 2.22 410 2.70 408 2.74 437 2.92 435 3.32
 122  0.579  0.749  0.547- 543 1.92 560 2.12 445 2.66 382 2.70 429 2.83 389 2.84
 123  0.576  0.549  0.552- 505 1.94 544 2.05 434 2.62 418 2.74 439 2.95 390 3.03
 124  0.916  0.550  0.546- 483 1.85 533 2.23 460 2.68 397 2.72 421 2.92 428 3.34
 125  0.917  0.351  0.546- 545 1.85 486 2.16 420 2.67 448 2.68 426 3.30 394 3.31
 126  0.584  0.951  0.545- 546 1.84 481 2.23 409 2.70 407 2.71 430 2.95 425 3.07
 127  0.913  0.751  0.546- 487 1.84 500 2.23 431 2.64 447 2.72 385 2.81
 128  0.916  0.950  0.546- 488 1.84 471 2.19 406 2.68 411 2.70 422 3.24 398 3.34
 129  0.083  0.250  0.547- 548 1.84 501 2.20 449 2.71 387 2.73 394 3.20 443 3.28
 130  0.083  0.651  0.546- 490 1.84 503 2.22 397 2.69 419 2.72 436 2.84
 131  0.666  0.899  0.499- 546 1.97 494 2.00 389 2.72 461 2.76 409 2.86 430 3.22
 132  0.417  0.050  0.361- 536 1.97 416 2.79 413 2.79
 133  0.084  0.249  0.642- 501 1.80 443 2.50 394 2.50
 134  0.084  0.050  0.547- 482 1.85 475 2.20 408 2.68 411 2.71 404 3.24 405 3.26
 135  0.916  0.151  0.546- 477 1.84 504 2.21 417 2.67 449 2.70 400 3.26 405 3.28
 136  0.583  0.150  0.547- 478 1.85 509 2.19 391 2.69 384 2.70 402 3.25 403 3.26
 137  0.250  0.150  0.547- 480 1.85 510 2.18 393 2.68 387 2.70 401 3.27 404 3.27
 138  0.750  0.149  0.547- 479 1.85 518 2.22 391 2.72 417 2.73 400 3.20 402 3.21
 139  0.416  0.151  0.546- 476 1.85 520 2.19 393 2.69 384 2.69 401 3.27 403 3.27
 140  0.084  0.151  0.546- 482 1.85 501 2.19 387 2.68 449 2.69 404 3.28 405 3.29
 141  0.417  0.050  0.547- 476 1.86 473 2.20 410 2.68 407 2.70 401 3.23 403 3.26
 142  0.500  0.100  0.499- 476 1.98 478 1.98 413 2.75 384 2.77 407 2.78
 143  0.167  0.100  0.499- 480 1.98 482 1.99 414 2.75 408 2.78 387 2.81
 144  0.667  0.100  0.499- 478 1.99 479 1.99 415 2.75 391 2.76 409 2.76
 145  0.333  0.100  0.499- 476 1.99 480 1.99 410 2.75 416 2.76 393 2.78
 146  0.000  0.100  0.499- 477 1.98 482 1.98 399 2.76 411 2.80 449 2.80
 147  0.917  0.150  0.454- 531 1.98 477 2.10 399 2.79 412 2.79 417 2.87 449 2.88
 148  0.583  0.150  0.454- 527 1.97 478 2.10 415 2.80 413 2.80 391 2.85 384 2.85
 149  0.250  0.150  0.454- 539 1.98 480 2.10 416 2.79 414 2.79 393 2.86 387 2.88
 150  0.833  0.100  0.499- 479 1.98 477 1.99 412 2.75 406 2.78 417 2.79
 151  0.750  0.049  0.546- 479 1.85 474 2.21 409 2.68 406 2.69 400 3.26 402 3.28
 152  0.250  0.050  0.547- 480 1.85 472 2.21 410 2.70 408 2.71 404 3.23 401 3.24
 153  0.583  0.050  0.547- 478 1.85 481 2.18 409 2.69 407 2.70 402 3.26 403 3.26
 154  0.916  0.050  0.640- 471 1.80 405 2.50 400 2.50
 155  0.750  0.151  0.641- 518 1.80 400 2.50 402 2.51
 156  0.250  0.149  0.641- 510 1.79 401 2.50 404 2.51
 157  0.916  0.150  0.640- 504 1.80 400 2.49 405 2.51
 158  0.583  0.150  0.642- 509 1.79 403 2.50 402 2.51
 159  0.417  0.150  0.641- 520 1.79 403 2.50 401 2.51
 160  0.083  0.149  0.640- 501 1.80 405 2.49 404 2.50
 161  0.083  0.049  0.641- 475 1.80 404 2.50 405 2.51
 162  0.750  0.050  0.641- 474 1.79 400 2.50 402 2.50
 163  0.417  0.050  0.642- 473 1.79 401 2.50 403 2.51
 164  0.833  0.999  0.592- 474 1.99 471 2.01 406 2.58 422 2.86 400 2.94
 165  0.500  0.000  0.591- 473 1.99 481 2.00 407 2.57 425 2.82 403 2.92
 166  0.167  0.999  0.592- 472 1.99 475 2.02 408 2.58 404 2.90 435 2.91
 167  0.666  0.000  0.592- 481 2.00 474 2.01 409 2.59 430 2.73 402 2.92
 168  1.000  0.999  0.592- 475 2.00 471 2.00 411 2.58 405 2.92 398 2.92
 169  0.334  1.000  0.591- 473 2.01 472 2.02 410 2.58 437 2.73 401 2.89
 170  0.916  0.050  0.546- 477 1.85 471 2.19 406 2.68 411 2.71 400 3.25 405 3.25
 171  0.750  0.151  0.454- 542 1.98 479 2.10 412 2.81 415 2.81 391 2.84 417 2.86
 172  0.417  0.150  0.454- 555 1.98 476 2.10 416 2.80 413 2.80 384 2.86 393 2.87
 173  0.083  0.150  0.453- 559 1.98 482 2.11 399 2.78 414 2.79 449 2.88 387 2.89
 174  0.917  0.050  0.454- 521 1.97 477 2.12 412 2.80 399 2.80 406 2.85 411 2.87
 175  0.417  0.150  0.361- 555 1.97 416 2.79 413 2.79
 176  0.083  0.150  0.361- 559 1.97 414 2.79 399 2.79
 177  0.917  0.850  0.361- 549 1.97 452 2.79 450 2.79
 178  0.084  0.850  0.642- 502 1.79 435 2.48 398 2.52
 179  0.252  0.945  0.637- 472 1.81 435 2.48 437 2.50
 180  0.578  0.352  0.644- 508 1.90  28 2.13 433 2.66 438 2.70
 181  0.250  0.742  0.665-  31 2.06  26 2.10 436 3.07 441 3.12
 182  0.241  0.554  0.642- 506 1.90  34 2.11 432 2.61 440 2.92
 183  0.916  0.950  0.640- 471 1.80 422 2.48 398 2.49
 184  0.916  0.750  0.640- 500 1.80 427 2.45 385 2.50
 185  0.912  0.549  0.639- 533 1.80 421 2.51 428 2.53
 186  0.083  0.750  0.640- 502 1.80 427 2.44 436 2.51
 187  0.084  0.949  0.640- 475 1.80 435 2.48 398 2.49
 188  0.415  0.535  0.630-  11 2.03 485 2.07 434 2.53 440 2.59
 189  0.419  0.351  0.640- 513 1.99  42 2.01 433 2.65 442 2.67
 190  0.084  0.349  0.641- 519 1.79 443 2.49 394 2.50
 191  0.087  0.550  0.640- 503 1.79 432 2.51 428 2.53
 192  0.750  0.150  0.361- 542 1.97 415 2.79 412 2.79
 193  0.086  0.650  0.642- 503 1.80 427 2.46 436 2.55
 194  0.250  0.150  0.361- 539 1.97 414 2.79 416 2.79
 195  0.917  0.150  0.361- 531 1.97 399 2.79 412 2.79
 196  0.583  0.050  0.454- 484 1.98 478 2.11 415 2.80 413 2.81 409 2.83 407 2.85
 197  0.250  0.049  0.454- 538 1.97 480 2.11 416 2.81 414 2.82 410 2.83 408 2.86
 198  0.750  0.050  0.454- 537 1.97 479 2.11 412 2.79 415 2.79 409 2.86 406 2.88
 199  0.416  0.049  0.454- 536 1.97 476 2.12 416 2.81 410 2.81 413 2.82 407 2.85
 200  0.083  0.050  0.454- 535 1.97 482 2.11 414 2.80 399 2.80 408 2.85 411 2.87
 201  0.833  0.000  0.407- 537 1.97 521 1.97 412 2.79 450 2.79 406 2.97
 202  0.500  0.000  0.407- 484 1.97 536 1.97 413 2.79 465 2.79 407 2.95
 203  0.167  0.000  0.407- 538 1.97 535 1.97 414 2.79 470 2.79 408 2.97
 204  0.667  0.000  0.407- 537 1.97 484 1.97 415 2.79 461 2.79 409 2.95
 205  0.333  0.000  0.407- 536 1.97 538 1.97 416 2.79 456 2.79 410 2.95
 206  0.000  0.000  0.407- 521 1.97 535 1.97 399 2.79 452 2.79 411 2.96
 207  0.917  0.050  0.361- 521 1.97 399 2.79 412 2.79
 208  0.583  0.050  0.361- 484 1.97 413 2.79 415 2.79
 209  0.250  0.050  0.361- 538 1.97 414 2.79 416 2.79
 210  0.750  0.050  0.361- 537 1.97 415 2.79 412 2.79
 211  0.580  0.348  0.550- 523 1.95 508 1.97 423 2.73 396 2.85 433 2.90 438 3.05
 212  0.083  0.050  0.361- 535 1.97 414 2.79 399 2.79
 213  0.583  0.150  0.361- 527 1.97 413 2.79 415 2.79
 214  0.249  0.747  0.552- 507 1.96 496 1.98 441 2.74 436 2.89 383 2.91 392 2.93
 215  0.580  0.747  0.638- 560 1.88  21 2.10 445 2.61 429 2.76
 216  0.248  0.549  0.549- 506 1.94 497 1.98 440 2.66 388 2.82 419 2.83 432 3.02
 217  0.417  0.950  0.361- 536 1.97 456 2.79 465 2.79
 218  0.750  0.350  0.361- 541 1.97 457 2.79 464 2.79
 219  0.750  0.550  0.361- 534 1.97 458 2.79 446 2.79
 220  0.750  0.750  0.361- 540 1.97 462 2.79 395 2.79
 221  0.750  0.950  0.361- 537 1.97 461 2.79 450 2.79
 222  0.250  0.350  0.361- 524 1.97 459 2.79 453 2.79
 223  0.250  0.750  0.361- 526 1.97 463 2.79 455 2.79
 224  0.417  0.750  0.361- 558 1.97 455 2.79 466 2.79
 225  0.917  0.950  0.361- 521 1.97 452 2.79 450 2.79
 226  0.583  0.350  0.361- 528 1.97 468 2.79 457 2.79
 227  0.583  0.550  0.361- 529 1.97 469 2.79 458 2.79
 228  0.583  0.750  0.361- 530 1.97 466 2.79 462 2.79
 229  0.583  0.950  0.361- 484 1.97 465 2.79 461 2.79
 230  0.917  0.350  0.361- 532 1.97 424 2.79 464 2.79
 231  0.917  0.550  0.361- 551 1.97 444 2.79 446 2.79
 232  0.917  0.750  0.361- 549 1.97 451 2.79 395 2.79
 233  0.250  0.950  0.361- 538 1.97 470 2.79 456 2.79
 234  0.417  0.550  0.361- 557 1.97 454 2.79 469 2.79
 235  0.250  0.550  0.361- 525 1.97 467 2.79 454 2.79
 236  0.083  0.250  0.361- 559 1.97 459 2.79 424 2.79
 237  0.750  0.250  0.361- 542 1.97 457 2.79 464 2.79
 238  0.750  0.450  0.361- 541 1.97 458 2.79 446 2.79
 239  0.750  0.650  0.361- 534 1.97 462 2.79 395 2.79
 240  0.750  0.850  0.361- 540 1.97 461 2.79 450 2.79
 241  0.250  0.250  0.361- 539 1.97 459 2.79 453 2.79
 242  0.250  0.450  0.361- 524 1.97 467 2.79 454 2.79
 243  0.250  0.650  0.361- 525 1.97 463 2.79 455 2.79
 244  0.250  0.850  0.361- 526 1.97 470 2.79 456 2.79
 245  0.583  0.250  0.361- 527 1.97 468 2.79 457 2.79
 246  0.583  0.450  0.361- 528 1.97 469 2.79 458 2.79
 247  0.583  0.650  0.361- 529 1.97 466 2.79 462 2.79
 248  0.583  0.850  0.361- 530 1.97 465 2.79 461 2.79
 249  0.917  0.250  0.361- 531 1.97 424 2.79 464 2.79
 250  0.917  0.450  0.361- 532 1.97 444 2.79 446 2.79
 251  0.165  0.603  0.588- 506 1.84 503 2.05 419 2.58 436 2.80 432 2.99
 252  0.083  0.650  0.361- 553 1.97 463 2.79 451 2.79
 253  0.083  0.450  0.361- 552 1.97 467 2.79 444 2.79
 254  0.583  0.251  0.454- 523 2.00 527 2.01 468 2.78 457 2.79 384 2.89 391 2.91
 255  0.584  0.650  0.455- 543 2.00 529 2.00 418 2.77 390 2.79 462 2.80 466 2.84
 256  0.665  0.700  0.503- 543 1.93 547 2.06 429 2.72 390 2.81 389 2.82 462 2.88
 257  0.251  0.948  0.454- 550 1.92 538 2.01 456 2.76 470 2.78 410 2.92 408 2.93
 258  0.916  0.450  0.454- 532 1.98 483 2.09 446 2.80 420 2.81 444 2.81 448 2.89
 259  0.916  0.250  0.454- 531 1.99 545 2.09 464 2.79 424 2.81 417 2.86 449 2.88
 260  0.251  0.552  0.455- 525 1.97 497 2.06 388 2.69 454 2.83 419 2.85 467 2.86
 261  0.916  0.650  0.454- 551 1.98 487 2.11 460 2.78 395 2.79 451 2.81 397 2.89
 262  0.916  0.850  0.454- 549 1.98 488 2.11 431 2.75 450 2.80 452 2.81 447 2.88
 263  0.084  0.350  0.454- 552 1.98 548 2.12 459 2.79 424 2.80 386 2.86 448 2.87
 264  0.083  0.550  0.454- 553 1.97 498 2.11 419 2.77 444 2.79 467 2.80 397 2.91
 265  0.084  0.949  0.454- 535 1.99 489 2.11 470 2.77 452 2.79 408 2.88 411 2.90
 266  0.085  0.750  0.453- 554 1.98 490 2.09 463 2.76 383 2.80 451 2.81 447 2.93
 267  0.417  0.548  0.454- 492 1.96 557 2.02 469 2.76 454 2.78 418 2.82 388 2.86
 268  0.417  0.747  0.454- 491 1.90 558 2.05 466 2.76 455 2.77 392 2.86 382 2.91
 269  0.417  0.948  0.454- 522 1.97 536 2.03 465 2.76 456 2.78 407 2.89 410 2.92
 270  0.750  0.352  0.456- 541 1.98 511 2.11 396 2.75 420 2.79 464 2.84 457 2.85
 271  0.750  0.551  0.456- 499 1.99 534 2.01 390 2.71 460 2.84 458 2.84 446 2.85
 272  0.749  0.751  0.457- 547 1.98 540 2.04 389 2.78 462 2.84 431 2.84 395 2.87
 273  0.749  0.950  0.455- 494 1.93 537 2.00 461 2.79 450 2.83 409 2.86 406 2.90
 274  0.250  0.351  0.454- 524 1.97 495 2.12 381 2.74 459 2.82 453 2.82 386 2.85
 275  0.417  0.350  0.454- 556 1.98 493 2.07 423 2.80 468 2.80 453 2.81 381 2.85
 276  0.417  0.850  0.361- 558 1.97 456 2.79 465 2.79
 277  0.252  0.750  0.456- 496 1.99 526 2.03 392 2.76 455 2.81 463 2.86 383 2.88
 278  0.583  0.352  0.455- 528 1.97 523 2.10 423 2.70 396 2.77 468 2.84 457 2.86
 279  0.583  0.551  0.456- 529 2.01 544 2.02 418 2.70 390 2.79 469 2.83 458 2.86
 280  0.583  0.748  0.454- 543 1.90 530 2.03 466 2.77 462 2.78 389 2.85 382 2.87
 281  0.583  0.948  0.454- 484 2.01 546 2.03 465 2.76 461 2.78 407 2.89 409 2.92
 282  0.916  0.350  0.454- 532 1.98 545 2.10 464 2.78 420 2.78 424 2.80 448 2.91
 283  0.916  0.550  0.454- 551 1.99 483 2.10 460 2.78 446 2.78 444 2.80 397 2.91
 284  0.915  0.750  0.453- 549 1.98 487 2.10 395 2.76 431 2.79 451 2.81 447 2.93
 285  0.666  0.503  0.503- 544 1.94 499 2.06 390 2.70 439 2.74 458 2.89 396 2.92
 286  0.334  0.503  0.503- 492 1.96 497 2.07 388 2.70 440 2.71 454 2.88 381 2.90
 287  0.336  0.700  0.504- 491 1.93 496 2.08 441 2.74 392 2.80 388 2.82 455 2.92
 288  0.666  0.301  0.499- 523 1.96 511 2.02 396 2.70 457 2.77 391 2.87 438 3.36
 289  0.334  0.898  0.499- 522 1.97 550 2.00 392 2.73 456 2.77 410 2.89 437 3.10
 290  0.000  0.899  0.499- 489 1.97 488 1.97 452 2.77 447 2.77 411 2.81
 291  0.334  0.301  0.499- 493 1.95 495 2.00 381 2.73 453 2.75 393 2.84 442 3.41
 292  1.000  0.702  0.497- 490 1.94 487 1.95 451 2.71 447 2.76 397 2.84
 293  1.000  0.499  0.499- 483 1.94 498 1.96 444 2.75 448 2.78 397 2.84
 294  0.583  0.847  0.456- 530 1.97 546 2.11 389 2.72 382 2.72 465 2.86 461 2.87
 295  0.000  0.300  0.499- 545 1.96 548 1.99 424 2.75 448 2.79 449 2.80
 296  0.917  0.950  0.454- 521 1.98 488 2.10 450 2.79 452 2.79 406 2.88 411 2.88
 297  0.417  0.650  0.361- 557 1.97 455 2.79 466 2.79
 298  0.250  0.049  0.641- 472 1.80 404 2.51 401 2.51
 299  0.417  0.250  0.361- 555 1.97 453 2.79 468 2.79
 300  0.917  0.251  0.547- 545 1.85 504 2.18 449 2.71 417 2.73 394 3.23 426 3.25
 301  0.168  0.899  0.499- 550 1.94 489 2.02 383 2.73 470 2.77 408 2.85
 302  0.252  0.351  0.547- 495 1.88 512 2.11 381 2.64 386 2.73 442 3.11 443 3.33
 303  0.748  0.948  0.547- 494 1.83 474 2.23 409 2.75 406 2.79 430 2.93 422 3.21
 304  0.752  0.745  0.553- 547 1.96 516 1.97 429 2.66 385 2.87 431 2.95 389 2.99
 305  0.753  0.547  0.550- 499 1.93 515 2.06 439 2.74 460 2.82 390 2.88 421 2.91
 306  0.423  0.555  0.546- 485 1.88 492 2.07 418 2.61 388 2.85 434 2.87 440 3.12
 307  0.423  0.750  0.547- 491 1.95 514 2.00 382 2.67 445 2.78 392 2.86 441 2.93
 308  0.747  0.347  0.551- 517 1.94 511 1.95 396 2.77 420 2.90 438 2.96 426 3.19
 309  0.416  0.948  0.547- 522 1.84 473 2.24 410 2.75 407 2.76 437 2.86 425 3.04
 310  0.084  0.951  0.546- 489 1.84 475 2.19 408 2.68 411 2.70 435 3.27 398 3.35
 311  0.416  0.353  0.547- 513 1.84 493 2.05 381 2.74 423 2.75 433 3.07 442 3.18
 312  0.087  0.752  0.546- 490 1.85 502 2.22 383 2.63 447 2.73 436 2.77
 313  0.083  0.550  0.546- 498 1.85 503 2.23 397 2.68 419 2.69 432 3.04 428 3.34
 314  0.084  0.351  0.546- 548 1.85 519 2.18 386 2.66 448 2.68 394 3.28 443 3.33
 315  0.499  0.301  0.500- 493 1.98 523 2.00 423 2.71 468 2.78 384 2.85 433 3.18
 316  1.000  0.599  0.594- 533 1.94 503 1.95 397 2.62 428 2.88 427 3.18
 317  1.000  0.803  0.593- 502 1.94 500 1.95 447 2.57 398 2.85 427 3.32
 318  0.335  0.404  0.593- 513 1.91 512 2.05 440 2.66 381 2.71 442 3.04
 319  0.334  0.200  0.592- 520 1.99 510 2.01 393 2.59 442 2.77 401 2.93
 320  1.000  0.200  0.592- 504 2.00 501 2.01 449 2.59 394 2.87 405 2.92
 321  0.001  0.400  0.592- 486 1.94 519 1.99 448 2.59 428 2.94 394 2.95
 322  0.333  0.597  0.591- 485 1.85 506 2.16 388 2.70 440 2.74 441 2.85
 323  0.335  0.792  0.592- 514 1.93 507 2.06 441 2.59 392 2.71 437 3.11
 324  0.663  0.398  0.591- 508 1.88 517 2.14 396 2.63 439 2.79 438 2.80
 325  0.666  0.200  0.592- 509 1.99 518 2.01 391 2.59 438 2.85 402 2.89
 326  0.666  0.793  0.591- 560 1.95 516 2.05 429 2.58 389 2.66 430 3.11
 327  0.667  0.595  0.591- 505 1.82 515 2.13 390 2.71 439 2.72 429 2.96
 328  0.168  0.399  0.593- 512 1.94 519 2.03 386 2.60 432 2.79 443 2.91
 329  0.167  0.300  0.500- 495 1.96 548 1.99 386 2.76 459 2.79 387 2.80
 330  0.500  0.800  0.407- 530 1.97 558 1.97 465 2.79 466 2.79 382 2.91
 331  0.500  0.400  0.407- 528 1.97 556 1.97 469 2.79 468 2.79 423 2.85
 332  0.500  0.200  0.407- 527 1.97 555 1.97 468 2.79 413 2.79 384 2.95
 333  0.748  0.451  0.455- 499 1.99 541 2.03 458 2.75 396 2.81 446 2.83 420 2.93
 334  0.748  0.651  0.454- 547 2.00 534 2.00 462 2.75 390 2.76 395 2.80 460 2.93
 335  0.750  0.850  0.454- 540 1.98 494 2.07 461 2.79 450 2.80 389 2.82 431 2.85
 336  0.250  0.250  0.454- 539 2.00 495 2.09 453 2.80 459 2.80 393 2.87 387 2.88
 337  0.915  0.450  0.547- 483 1.85 486 2.20 420 2.69 448 2.75 421 2.87 428 3.36
 338  0.252  0.452  0.454- 497 1.96 524 2.02 454 2.74 381 2.79 467 2.80 386 2.96
 339  0.252  0.652  0.454- 496 1.99 525 2.02 455 2.74 388 2.77 463 2.81 419 2.94
 340  0.251  0.848  0.456- 526 1.98 550 2.07 392 2.75 383 2.82 456 2.84 470 2.85
 341  0.833  0.400  0.407- 541 1.97 532 1.97 446 2.79 464 2.79 420 2.89
 342  0.584  0.452  0.454- 544 1.94 528 2.02 458 2.75 469 2.79 423 2.87 396 2.87
 343  0.833  0.200  0.407- 542 1.97 531 1.97 464 2.79 412 2.79 417 2.97
 344  0.500  0.600  0.407- 529 1.97 557 1.97 466 2.79 469 2.79 418 2.80
 345  0.083  0.350  0.361- 552 1.97 459 2.79 424 2.79
 346  0.000  0.200  0.407- 531 1.97 559 1.97 424 2.79 399 2.79 449 2.97
 347  0.749  0.251  0.454- 542 2.00 511 2.01 457 2.76 464 2.78 391 2.90 417 2.92
 348  0.000  0.400  0.407- 532 1.97 552 1.97 444 2.79 424 2.79 448 2.97
 349  0.000  0.800  0.407- 549 1.97 554 1.97 452 2.79 451 2.79 447 2.99
 350  0.333  0.200  0.407- 555 1.97 539 1.97 453 2.79 416 2.79 393 2.97
 351  0.333  0.400  0.407- 556 1.97 524 1.97 454 2.79 453 2.79 381 2.88
 352  0.333  0.600  0.407- 557 1.97 525 1.97 454 2.79 455 2.79 388 2.83
 353  0.333  0.800  0.407- 558 1.97 526 1.97 456 2.79 455 2.79 392 2.85
 354  0.667  0.200  0.407- 542 1.97 527 1.97 457 2.79 415 2.79 391 2.96
 355  0.667  0.400  0.407- 541 1.97 528 1.97 458 2.79 457 2.79 396 2.88
 356  0.417  0.450  0.361- 556 1.97 454 2.79 469 2.79
 357  0.667  0.600  0.407- 534 1.97 529 1.97 458 2.79 462 2.79 390 2.82
 358  0.667  0.800  0.407- 540 1.97 530 1.97 461 2.79 462 2.79 389 2.86
 359  0.167  0.200  0.407- 539 1.97 559 1.97 459 2.79 414 2.79 387 2.97
 360  0.167  0.400  0.407- 524 1.97 552 1.97 467 2.79 459 2.79 386 2.98
 361  0.167  0.600  0.407- 525 1.97 553 1.97 463 2.79 467 2.79 419 2.86
 362  0.167  0.800  0.407- 526 1.97 554 1.97 470 2.79 463 2.79 383 2.90
 363  0.000  0.600  0.407- 551 1.97 553 1.97 444 2.79 451 2.79 397 3.00
 364  0.171  0.800  0.596- 507 1.86 502 2.15 436 2.75 383 2.77 435 2.85
 365  0.167  0.200  0.592- 510 1.99 501 2.00 387 2.58 443 2.90 404 2.93
 366  0.084  0.250  0.454- 559 1.98 548 2.11 459 2.80 424 2.82 387 2.86 449 2.87
 367  0.084  0.849  0.454- 554 1.98 489 2.10 383 2.77 470 2.80 452 2.82 447 2.88
 368  0.084  0.650  0.454- 553 1.99 490 2.11 419 2.76 463 2.78 451 2.80 397 2.91
 369  0.083  0.450  0.454- 552 1.98 498 2.10 467 2.80 444 2.80 448 2.86 386 2.89
 370  0.416  0.647  0.458- 491 1.98 557 2.02 418 2.73 388 2.73 455 2.89 466 2.91
 371  0.833  0.800  0.407- 540 1.97 549 1.97 450 2.79 395 2.79 431 2.87
 372  0.833  0.600  0.407- 534 1.97 551 1.97 395 2.79 446 2.79 460 2.88
 373  0.083  0.550  0.361- 553 1.97 467 2.79 444 2.79
 374  0.083  0.750  0.361- 554 1.97 463 2.79 451 2.79
 375  0.083  0.950  0.361- 535 1.97 470 2.79 452 2.79
 376  0.417  0.350  0.361- 556 1.97 453 2.79 468 2.79
 377  0.083  0.850  0.361- 554 1.97 470 2.79 452 2.79
 378  0.417  0.847  0.456- 558 1.96 522 2.09 392 2.74 382 2.76 465 2.86 456 2.87
 379  0.416  0.250  0.455- 493 1.94 555 2.01 453 2.80 468 2.82 393 2.87 384 2.87
 380  0.415  0.449  0.457- 492 1.91 556 2.04 381 2.81 423 2.83 454 2.83 469 2.88
 381  0.330  0.399  0.503- 302 2.64 318 2.71 291 2.73 274 2.74 311 2.74 100 2.74 338 2.79 380 2.81
                           275 2.85 351 2.88 286 2.90  90 2.96 513 3.33 495 3.36 497 3.41 524 3.45
 382  0.501  0.802  0.504-  79 2.67 307 2.67  54 2.68 122 2.70 294 2.72 378 2.76  96 2.79 105 2.82
                           280 2.87 330 2.91 268 2.91  53 2.95 514 3.38 546 3.38 522 3.41 543 3.42
 383  0.165  0.801  0.504- 312 2.63 111 2.67 301 2.73 367 2.77 364 2.77 266 2.80 340 2.82  70 2.83
                           277 2.88 102 2.89 362 2.90 214 2.91 507 3.34 489 3.36 490 3.42 496 3.45
 384  0.500  0.199  0.505- 118 2.58 139 2.69 136 2.70 103 2.72 142 2.77 109 2.77 148 2.85 315 2.85
                           172 2.86 379 2.87 254 2.89 332 2.95 476 3.39 478 3.39 493 3.39 523 3.40
 385  0.841  0.701  0.603- 184 2.50  66 2.55  75 2.61  81 2.78  83 2.79 127 2.81 107 2.86 304 2.87
                           117 3.02  51 3.10  97 3.22 500 3.33 533 3.37 515 3.42 487 3.44 516 3.54
 386  0.166  0.399  0.506- 328 2.60 314 2.66 112 2.68 100 2.73 302 2.73 329 2.76 274 2.85 263 2.86
                            88 2.86 369 2.89 338 2.96 360 2.98 497 3.37 548 3.39 495 3.39 498 3.46
 387  0.167  0.200  0.506- 365 2.58 140 2.68 137 2.70 129 2.73  99 2.74 329 2.80 143 2.81 366 2.86
                           336 2.88 149 2.88 173 2.89 359 2.97 495 3.40 548 3.41 480 3.41 482 3.42
 388  0.331  0.599  0.501- 101 2.64 260 2.69 286 2.70 322 2.70 370 2.73 339 2.77 216 2.82 287 2.82
                           352 2.83 306 2.85 267 2.86  92 3.04 485 3.35 525 3.42 496 3.43 492 3.45
 389  0.666  0.801  0.502- 326 2.66  98 2.68 294 2.72 131 2.72 105 2.76 272 2.78 335 2.82 256 2.82
                           122 2.84 280 2.85 358 2.86 304 2.99 516 3.35 543 3.39 546 3.39 530 3.46
 390  0.669  0.600  0.501-  97 2.62 285 2.70 327 2.71 271 2.71 334 2.76 279 2.79 255 2.79 256 2.81
                           357 2.82 106 2.87 305 2.88 123 3.03 505 3.34 534 3.41 547 3.42 499 3.42
 391  0.667  0.199  0.506- 325 2.59  95 2.66 136 2.69 138 2.72 103 2.72 144 2.76 171 2.84 148 2.85
                           288 2.87 347 2.90 254 2.91 354 2.96 478 3.39 479 3.39 523 3.40 511 3.40
 392  0.334  0.801  0.502-  96 2.71 323 2.71 289 2.73 378 2.74 340 2.75 277 2.76 102 2.78 287 2.80
                           353 2.85 268 2.86 307 2.86 214 2.93 507 3.38 514 3.39 491 3.41 522 3.43
 393  0.333  0.199  0.506- 319 2.59 137 2.68 139 2.69  99 2.70 109 2.76 145 2.78 291 2.84 149 2.86
                           379 2.87 336 2.87 172 2.87 350 2.97 493 3.37 480 3.40 476 3.40 495 3.43
 394  0.001  0.299  0.620- 133 2.50  71 2.50 190 2.50  85 2.52 320 2.87 321 2.95 129 3.20 300 3.23
                           314 3.28 125 3.31 504 3.42 486 3.42 501 3.43 519 3.44 548 3.90 545 3.93
 395  0.833  0.700  0.407- 284 2.76 239 2.79 220 2.79  56 2.79 232 2.79 372 2.79 371 2.79  51 2.79
                           261 2.79 334 2.80 272 2.87 534 3.42 540 3.42 551 3.42 549 3.42 547 3.45
 396  0.667  0.398  0.503- 324 2.63 288 2.70  94 2.74 104 2.75 270 2.75 308 2.77 278 2.77 333 2.81
                           211 2.85 342 2.87 355 2.88 285 2.92 544 3.42 523 3.42 517 3.42 511 3.43
 397  1.000  0.600  0.507- 316 2.62 107 2.68 313 2.68 130 2.69 124 2.72 293 2.84 292 2.84 261 2.89
                           368 2.91 264 2.91 283 2.91 363 3.00 487 3.39 490 3.40 483 3.41 498 3.42
 398  1.000  0.900  0.622- 183 2.49 187 2.49  63 2.52 178 2.52 317 2.85 168 2.92 108 3.32 111 3.33
                           128 3.34 310 3.35 502 3.41 500 3.41 475 3.46 471 3.46 422 3.94 435 3.95
 399  0.000  0.100  0.407- 146 2.76 173 2.78 147 2.79 207 2.79 195 2.79 212 2.79 176 2.79 206 2.79
                           346 2.79 174 2.80 200 2.80 521 3.42 531 3.42 535 3.42 559 3.42 477 3.57
 400  0.833  0.100  0.619- 157 2.49 162 2.50 154 2.50 155 2.50 164 2.94  80 2.95 138 3.20 170 3.25
                           135 3.26 151 3.26 474 3.45 518 3.46 504 3.46 471 3.47 479 3.89 477 3.91
 401  0.334  0.099  0.619- 163 2.50 156 2.50 298 2.51 159 2.51 169 2.89 319 2.93 141 3.23 152 3.24
                           139 3.27 137 3.27 473 3.42 510 3.44 472 3.46 520 3.46 476 3.91 480 3.92
 402  0.667  0.101  0.619- 162 2.50 158 2.51 155 2.51  86 2.51 325 2.89 167 2.92 138 3.21 136 3.25
                           153 3.26 151 3.28 509 3.43 481 3.45 518 3.46 474 3.46 479 3.91 478 3.92
 403  0.500  0.100  0.620- 159 2.50  86 2.50 158 2.50 163 2.51 118 2.90 165 2.92 136 3.26 141 3.26
                           153 3.26 139 3.27 481 3.43 520 3.43 509 3.44 473 3.44 476 3.93 478 3.93
 404  0.167  0.099  0.619- 161 2.50 160 2.50 298 2.51 156 2.51 166 2.90 365 2.93 152 3.23 134 3.24
                           137 3.27 140 3.28 472 3.44 475 3.44 510 3.45 501 3.46 480 3.92 482 3.92
 405  1.000  0.100  0.619- 160 2.49 154 2.50 157 2.51 161 2.51 320 2.92 168 2.92 170 3.25 134 3.26
                           135 3.28 140 3.29 471 3.44 501 3.45 475 3.46 504 3.47 477 3.91 482 3.92
 406  0.834  0.001  0.506- 164 2.58 170 2.68 128 2.68 151 2.69 150 2.78 303 2.79  58 2.82 174 2.85
                           198 2.88 296 2.88 273 2.90 201 2.97 494 3.37 477 3.40 479 3.41 488 3.43
 407  0.500  0.001  0.505- 165 2.57 153 2.70 141 2.70 126 2.71 309 2.76 142 2.78 199 2.85 196 2.85
                            54 2.87 269 2.89 281 2.89 202 2.95 478 3.40 522 3.40 476 3.41 546 3.41
 408  0.166  0.001  0.506- 166 2.58 310 2.68 134 2.68 152 2.71 121 2.74 143 2.78 200 2.85 301 2.85
                           197 2.86 265 2.88 257 2.93 203 2.97 550 3.36 482 3.40 480 3.41 489 3.44
 409  0.666  0.001  0.505- 167 2.59 151 2.68 153 2.69 126 2.70 303 2.75 144 2.76 196 2.83 198 2.86
                           273 2.86 131 2.86 281 2.92 204 2.95 478 3.39 479 3.39 494 3.40 546 3.41
 410  0.334  0.002  0.505- 169 2.58 141 2.68 121 2.70 152 2.70 145 2.75 309 2.75 199 2.81 197 2.83
                           289 2.89 269 2.92 257 2.92 205 2.95 476 3.38 480 3.39 550 3.40 522 3.42
 411  0.000  0.000  0.506- 168 2.58 310 2.70 128 2.70 170 2.71 134 2.71 146 2.80 290 2.81 200 2.87
                           174 2.87 296 2.88 265 2.90 206 2.96 488 3.41 482 3.42 489 3.42 477 3.42
 412  0.833  0.100  0.407- 150 2.75 210 2.79 192 2.79 207 2.79 195 2.79 201 2.79 343 2.79 198 2.79
                           147 2.79 174 2.80 171 2.81 537 3.42 542 3.42 521 3.42 531 3.42 479 3.57
 413  0.500  0.100  0.407- 142 2.75 208 2.79 213 2.79 132 2.79 175 2.79 202 2.79 332 2.79 172 2.80
                           148 2.80 196 2.81 199 2.82 484 3.42 527 3.42 536 3.42 555 3.42 478 3.57
 414  0.167  0.100  0.407- 143 2.75 173 2.79 209 2.79 194 2.79 212 2.79 176 2.79 203 2.79 359 2.79
                           149 2.79 200 2.80 197 2.82 538 3.42 539 3.42 535 3.42 559 3.42 480 3.57
 415  0.667  0.100  0.407- 144 2.75 210 2.79 192 2.79 208 2.79 213 2.79 204 2.79 354 2.79 198 2.79
                           196 2.80 148 2.80 171 2.81 537 3.42 542 3.42 484 3.42 527 3.42 478 3.57
 416  0.333  0.100  0.407- 145 2.76 132 2.79 175 2.79 209 2.79 194 2.79 205 2.79 350 2.79 149 2.79
                           172 2.80 199 2.81 197 2.81 536 3.42 555 3.42 538 3.42 539 3.42 476 3.57
 417  0.834  0.200  0.506-  80 2.59 135 2.67  95 2.70 138 2.73 300 2.73 150 2.79  68 2.81 259 2.86
                           171 2.86 147 2.87 347 2.92 343 2.97 511 3.37 477 3.40 479 3.41 545 3.43
 418  0.501  0.600  0.500- 306 2.61  53 2.70 279 2.70 370 2.73 123 2.74 106 2.76 255 2.77 344 2.80
                           267 2.82  55 2.83  92 2.93 120 3.26 529 3.41 544 3.44 557 3.45 492 3.45
 419  0.163  0.600  0.502- 251 2.58 313 2.69 130 2.72 368 2.76  88 2.77 264 2.77 101 2.79  70 2.79
                           216 2.83 260 2.85 361 2.86 339 2.94 506 3.33 498 3.39 496 3.42 490 3.43
 420  0.835  0.399  0.503-  82 2.65 125 2.67 337 2.69  68 2.75 282 2.78  65 2.78 270 2.79 258 2.81
                            94 2.83 341 2.89 308 2.90 333 2.93 517 3.35 545 3.37 483 3.43 499 3.44
 421  0.837  0.498  0.604- 185 2.51  64 2.52 113 2.60  73 2.74  82 2.85 337 2.87 305 2.91 124 2.92
                            81 2.96  94 3.01  65 3.15 486 3.40 517 3.42 533 3.45 515 3.48 483 3.52
 422  0.833  0.900  0.618- 183 2.48  63 2.48 116 2.49  74 2.72 164 2.86  83 2.89 108 3.21 303 3.21
                           128 3.24  98 3.30 474 3.43 471 3.44 516 3.45 500 3.46 488 3.90 398 3.94
 423  0.501  0.398  0.502- 119 2.65 278 2.70 315 2.71 211 2.73 104 2.75 311 2.75  55 2.79 275 2.80
                           380 2.83 331 2.85 342 2.87  90 2.99 513 3.37 523 3.40 544 3.42 528 3.45
 424  0.000  0.300  0.407- 295 2.75 249 2.79 230 2.79 236 2.79 345 2.79 346 2.79 348 2.79 263 2.80
                           282 2.80 259 2.81 366 2.82 531 3.42 532 3.42 559 3.42 552 3.42 545 3.56
 425  0.500  0.901  0.609-  84 2.49  91 2.53  77 2.68  79 2.72  89 2.81 165 2.82 105 3.01 309 3.04
                           126 3.07  96 3.10  54 3.24 473 3.40 481 3.41 560 3.46 514 3.47 546 3.68
 426  0.834  0.300  0.620-  85 2.48  71 2.49  72 2.49 114 2.71  82 2.83  80 2.86 308 3.19 300 3.25
                           125 3.30  95 3.34 517 3.41 518 3.43 504 3.44 486 3.46 545 3.94 394 3.96
 427  0.999  0.698  0.646- 186 2.44  66 2.45 184 2.45 193 2.46 316 3.18 317 3.32 533 3.57 503 3.58
                           502 3.66 500 3.67 385 3.97 436 3.99 397 4.98 447 5.05
 428  0.000  0.500  0.623-  93 2.49  64 2.51 191 2.53 185 2.53 316 2.88 321 2.94 313 3.34 124 3.34
                           112 3.36 337 3.36 503 3.44 533 3.44 486 3.46 519 3.50 432 3.89 421 3.91
 429  0.666  0.701  0.594- 326 2.58  61 2.64 304 2.66  75 2.68 256 2.72 215 2.76 106 2.82 122 2.83
                            97 2.85 327 2.96 117 3.19 505 3.33 560 3.37 543 3.40 547 3.41  49 3.42
 430  0.665  0.904  0.606-  84 2.51 116 2.53  74 2.59  89 2.66 167 2.73 105 2.88 303 2.93 126 2.95
                            98 3.09 326 3.11 131 3.22 481 3.34 474 3.35 560 3.47 516 3.53 546 3.58
 431  0.836  0.801  0.503- 127 2.64 108 2.66  83 2.72 262 2.75  58 2.76  98 2.77 284 2.79 272 2.84
                           335 2.85  51 2.86 371 2.87 304 2.95 516 3.31 488 3.37 487 3.43 549 3.45
 432  0.163  0.497  0.608-  93 2.50 191 2.51  52 2.59 182 2.61 328 2.79 112 2.90 251 2.99 216 3.02
                           100 3.03 313 3.04  88 3.30 519 3.34 506 3.40 512 3.47 503 3.48 498 3.61
 433  0.500  0.297  0.605-  62 2.52  69 2.53 189 2.65 180 2.66 118 2.76 211 2.90 109 2.93 103 2.96
                           119 2.98 311 3.07 315 3.18 509 3.36 520 3.37 508 3.43 513 3.50 523 3.62
 434  0.502  0.497  0.595- 188 2.53  59 2.54 123 2.62 119 2.63  90 2.68 104 2.78  87 2.84  55 2.86
                           306 2.87  78 2.94 120 3.00 508 3.39 544 3.40 513 3.42 492 3.48 485 3.53
 435  0.166  0.899  0.619- 179 2.48 187 2.48 178 2.48 364 2.85 166 2.91  67 2.91 111 3.18 102 3.19
                           310 3.27 121 3.32 507 3.42 502 3.44 472 3.46 475 3.46 489 3.90 398 3.95
 436  0.159  0.702  0.602- 186 2.51 193 2.55  60 2.55 364 2.75 312 2.77 251 2.80 130 2.84 214 2.89
                            70 3.07 181 3.07 101 3.20 502 3.32 503 3.37 490 3.42 506 3.51 507 3.54
 437  0.334  0.903  0.603- 179 2.50  91 2.57  77 2.62 169 2.73  67 2.80 102 2.86 309 2.86  96 2.91
                           121 2.92 289 3.10 323 3.11 472 3.34 473 3.35 507 3.47 514 3.47 522 3.55
 438  0.666  0.300  0.611-  72 2.48  62 2.51 114 2.66 180 2.70 324 2.80 325 2.85 308 2.96 211 3.05
                           103 3.09  95 3.14 288 3.36 508 3.36 518 3.41 509 3.42 517 3.48 523 3.74
 439  0.671  0.497  0.594-  73 2.63  94 2.67  59 2.67 327 2.72 285 2.74 305 2.74 324 2.79 113 2.80
                           104 2.87 123 2.95  87 3.00 499 3.36 517 3.39 505 3.45 544 3.45 508 3.47
 440  0.326  0.499  0.593- 188 2.59 100 2.65 216 2.66 318 2.66  52 2.67 286 2.71  90 2.73 322 2.74
                           182 2.92 306 3.12 497 3.29  11 3.39 512 3.39  78 3.40 506 3.41 485 3.42
 441  0.334  0.699  0.596-  60 2.55 323 2.59 110 2.64  92 2.70 214 2.74 287 2.74  76 2.80 322 2.85
                           101 2.87 307 2.93 181 3.12 485 3.37 514 3.42 491 3.44 496 3.45 507 3.51
 442  0.332  0.297  0.613-  57 2.50  69 2.51 115 2.51 189 2.67 319 2.77  99 3.03 318 3.04 109 3.06
                           302 3.11 311 3.18 510 3.37 520 3.38 291 3.41 512 3.42 513 3.51 495 3.74
 443  0.167  0.299  0.621- 190 2.49  57 2.49 133 2.50 115 2.54 365 2.90 328 2.91  99 3.27 129 3.28
                           314 3.33 302 3.33 512 3.39 519 3.45 510 3.45 501 3.46 442 3.91 394 3.94
 444  0.000  0.500  0.407- 293 2.75 231 2.79 250 2.79 373 2.79 253 2.79 363 2.79 348 2.79 264 2.79
                           369 2.80 283 2.80 258 2.81 532 3.42 551 3.42 552 3.42 553 3.42 483 3.54
 445  0.504  0.700  0.594- 110 2.55 215 2.61  92 2.65 122 2.66 106 2.69 120 2.73 307 2.78  53 2.82
                            61 2.84  79 2.93 543 3.38 560 3.39  76 3.44 505 3.45 491 3.47 514 3.49
 446  0.833  0.500  0.407-  65 2.77 283 2.78 219 2.79 238 2.79 231 2.79 250 2.79 341 2.79 372 2.79
                           258 2.80 333 2.83 271 2.85 534 3.42 541 3.42 532 3.42 551 3.42 499 3.45
 447  1.000  0.800  0.507- 317 2.57 108 2.72 127 2.72 312 2.73 111 2.74 292 2.76 290 2.77 262 2.88
                           367 2.88 284 2.93 266 2.93 349 2.99 490 3.38 487 3.38 489 3.40 488 3.40
 448  0.001  0.400  0.506- 321 2.59 314 2.68 125 2.68 112 2.75 337 2.75 293 2.78 295 2.79 369 2.86
                           263 2.87 258 2.89 282 2.91 348 2.97 498 3.39 483 3.40 548 3.40 545 3.41
 449  0.000  0.200  0.506- 320 2.59 140 2.69 135 2.70 129 2.71 300 2.71 146 2.80 295 2.80 366 2.87
                           259 2.88 173 2.88 147 2.88 346 2.97 545 3.41 477 3.41 482 3.41 548 3.41
 450  0.833  0.900  0.407-  58 2.75 296 2.79 240 2.79 221 2.79 177 2.79 225 2.79 371 2.79 201 2.79
                           335 2.80 262 2.80 273 2.83 540 3.42 549 3.42 537 3.42 521 3.42 494 3.46
 451  0.000  0.700  0.407- 292 2.71  56 2.79 232 2.79 252 2.79 374 2.79 363 2.79 349 2.79 368 2.80
                           261 2.81 284 2.81 266 2.81 551 3.42 549 3.42 553 3.42 554 3.42 490 3.54
 452  0.000  0.900  0.407- 290 2.77 296 2.79 177 2.79 377 2.79 225 2.79 375 2.79 349 2.79 206 2.79
                           265 2.79 262 2.81 367 2.82 549 3.42 554 3.42 521 3.42 535 3.42 488 3.57
 453  0.333  0.300  0.407- 291 2.75 299 2.79 376 2.79 241 2.79 222 2.79 350 2.79 351 2.79 336 2.80
                           379 2.80 275 2.81 274 2.82 555 3.42 556 3.42 539 3.42 524 3.42 493 3.47
 454  0.333  0.500  0.407- 338 2.74 267 2.78 234 2.79 356 2.79 235 2.79 242 2.79 352 2.79 351 2.79
                           260 2.83 380 2.83 286 2.88 556 3.42 557 3.42 524 3.42 525 3.42 492 3.43
 455  0.333  0.700  0.407- 339 2.74 268 2.77 297 2.79 224 2.79 243 2.79 223 2.79 352 2.79 353 2.79
                           277 2.81 370 2.89 287 2.92 557 3.42 558 3.42 525 3.42 526 3.42 491 3.45
 456  0.333  0.900  0.407- 257 2.76 289 2.77 269 2.78 276 2.79 244 2.79 217 2.79 233 2.79 353 2.79
                           205 2.79 340 2.84 378 2.87 558 3.42 526 3.42 536 3.42 538 3.42 550 3.48
 457  0.667  0.300  0.407- 347 2.76 288 2.77 254 2.79 237 2.79 218 2.79 245 2.79 226 2.79 354 2.79
                           355 2.79 270 2.85 278 2.86 542 3.42 541 3.42 527 3.42 528 3.42 523 3.52
 458  0.667  0.500  0.407- 342 2.75 333 2.75 219 2.79 238 2.79 227 2.79 246 2.79 355 2.79 357 2.79
                           271 2.84 279 2.86 285 2.89 534 3.42 541 3.42 528 3.42 529 3.42 544 3.46
 459  0.167  0.300  0.407- 263 2.79 329 2.79 241 2.79 222 2.79 236 2.79 345 2.79 359 2.79 360 2.79
                           366 2.80 336 2.80 274 2.82 539 3.42 524 3.42 559 3.42 552 3.42 495 3.57
 460  0.836  0.600  0.503-  81 2.60 124 2.68 107 2.70  51 2.76  97 2.77 283 2.78 261 2.78 305 2.82
                            65 2.83 271 2.84 372 2.88 334 2.93 515 3.36 499 3.41 547 3.42 483 3.42
 461  0.667  0.900  0.407- 131 2.76 281 2.78 240 2.79 221 2.79 248 2.79 229 2.79 358 2.79 204 2.79
                           273 2.79 335 2.79 294 2.87 540 3.42 530 3.42 537 3.42 484 3.42 494 3.48
 462  0.667  0.700  0.407- 334 2.75 280 2.78 239 2.79 220 2.79 247 2.79 228 2.79 357 2.79 358 2.79
                           255 2.80 272 2.84 256 2.88 534 3.42 540 3.42 529 3.42 530 3.42 543 3.43
 463  0.167  0.700  0.407- 266 2.76 368 2.78 243 2.79 223 2.79 252 2.79 374 2.79 361 2.79 362 2.79
                            70 2.79 339 2.81 277 2.86 525 3.42 526 3.42 553 3.42 554 3.42 496 3.46
 464  0.833  0.300  0.407- 282 2.78 347 2.78 237 2.79 218 2.79 249 2.79 230 2.79 343 2.79 341 2.79
                            68 2.79 259 2.79 270 2.84 542 3.42 541 3.42 531 3.42 532 3.42 511 3.53
 465  0.500  0.900  0.407- 281 2.76 269 2.76 248 2.79 276 2.79 229 2.79 217 2.79 330 2.79 202 2.79
                            54 2.82 378 2.86 294 2.86 530 3.42 558 3.42 484 3.42 536 3.42 522 3.51
 466  0.500  0.700  0.407- 268 2.76 280 2.77 247 2.79 228 2.79 297 2.79 224 2.79 344 2.79 330 2.79
                            53 2.80 255 2.84 370 2.91 529 3.42 530 3.42 557 3.42 558 3.42 491 3.44
 467  0.167  0.500  0.407-  88 2.72 235 2.79 373 2.79 242 2.79 253 2.79 361 2.79 360 2.79 264 2.80
                           369 2.80 338 2.80 260 2.86 524 3.42 525 3.42 552 3.42 553 3.42 497 3.44
 468  0.500  0.300  0.407- 254 2.78 315 2.78 245 2.79 226 2.79 299 2.79 376 2.79 332 2.79 331 2.79
                           275 2.80 379 2.82 278 2.84 527 3.42 528 3.42 555 3.42 556 3.42 493 3.49
 469  0.500  0.500  0.407- 267 2.76 342 2.79 227 2.79 246 2.79 234 2.79 356 2.79 344 2.79 331 2.79
                            55 2.79 279 2.83 380 2.88 528 3.42 529 3.42 556 3.42 557 3.42 492 3.44
 470  0.167  0.900  0.407- 265 2.77 301 2.77 257 2.78 244 2.79 377 2.79 233 2.79 375 2.79 362 2.79
                           203 2.79 367 2.80 340 2.85 526 3.42 554 3.42 538 3.42 535 3.42 550 3.46
 471  0.917  1.000  0.603- 154 1.80 183 1.80 168 2.00 164 2.01 128 2.19 170 2.19 422 3.44 405 3.44
                           398 3.46 400 3.47 406 3.51 411 3.52
 472  0.250  0.999  0.603- 298 1.80 179 1.81 166 1.99 169 2.02 152 2.21 121 2.22 437 3.34 404 3.44
                           401 3.46 435 3.46 408 3.53 410 3.55
 473  0.417  0.000  0.604- 163 1.79  91 1.81 165 1.99 169 2.01 141 2.20 309 2.24 437 3.35 425 3.40
                           401 3.42 403 3.44 407 3.54 410 3.55
 474  0.750  1.000  0.604- 162 1.79 116 1.80 164 1.99 167 2.01 151 2.21 303 2.23 430 3.35 422 3.43
                           400 3.45 402 3.46 406 3.54 409 3.54
 475  0.083  0.999  0.603- 161 1.80 187 1.80 168 2.00 166 2.02 310 2.19 134 2.20 404 3.44 398 3.46
                           435 3.46 405 3.46 408 3.51 411 3.52
 476  0.417  0.100  0.506- 139 1.85 141 1.86 142 1.98 145 1.99 172 2.10 199 2.12 410 3.38 384 3.39
                           393 3.40 407 3.41 413 3.57 416 3.57 401 3.91 403 3.93
 477  0.917  0.100  0.506- 135 1.84 170 1.85 146 1.98 150 1.99 147 2.10 174 2.12 417 3.40 406 3.40
                           449 3.41 411 3.42 399 3.57 412 3.58 405 3.91 400 3.91
 478  0.583  0.100  0.506- 153 1.85 136 1.85 142 1.98 144 1.99 148 2.10 196 2.11 409 3.39 391 3.39
                           384 3.39 407 3.40 413 3.57 415 3.57 402 3.92 403 3.93
 479  0.750  0.100  0.506- 138 1.85 151 1.85 150 1.98 144 1.99 171 2.10 198 2.11 391 3.39 409 3.39
                           406 3.41 417 3.41 412 3.57 415 3.58 400 3.89 402 3.91
 480  0.250  0.100  0.506- 152 1.85 137 1.85 143 1.98 145 1.99 149 2.10 197 2.11 410 3.39 393 3.40
                           408 3.41 387 3.41 414 3.57 416 3.58 404 3.92 401 3.92
 481  0.583  0.001  0.603-  86 1.79  84 1.80 165 2.00 167 2.00 153 2.18 126 2.23 430 3.34 425 3.41
                           403 3.43 402 3.45 407 3.53 409 3.54
 482  0.083  0.100  0.506- 140 1.85 134 1.85 146 1.98 143 1.99 173 2.11 200 2.11 408 3.40 449 3.41
                           411 3.42 387 3.42 399 3.57 414 3.58 404 3.92 405 3.92
 483  0.918  0.499  0.506- 337 1.85 124 1.85 293 1.94  65 2.04 258 2.09 283 2.10 448 3.40 397 3.41
                           460 3.42 420 3.43 421 3.52 444 3.54 446 3.59 428 4.01
 484  0.583  0.000  0.407- 229 1.97 208 1.97 202 1.97 204 1.97 196 1.98 281 2.01 413 3.42 415 3.42
                           465 3.42 461 3.42 409 3.55 407 3.55
 485  0.412  0.598  0.593- 322 1.85 306 1.88  92 1.90 188 2.07 120 2.10  76 2.17 388 3.35 441 3.37
                           440 3.42 418 3.50 434 3.53 445 3.58
 486  0.920  0.399  0.602-  85 1.79  64 1.80 321 1.94  82 2.12 125 2.16 337 2.20 421 3.40 394 3.42
                           426 3.46 428 3.46 448 3.48 420 3.59
 487  0.918  0.700  0.506- 107 1.84 127 1.84 292 1.95  51 2.05 284 2.10 261 2.11 447 3.38 397 3.39
                           460 3.42 431 3.43 385 3.44 451 3.55 395 3.60
 488  0.917  0.900  0.506- 128 1.84 108 1.85 290 1.97  58 2.02 296 2.10 262 2.11 431 3.37 447 3.40
                           411 3.41 406 3.43 452 3.57 450 3.58 422 3.90 398 3.98
 489  0.083  0.900  0.507- 310 1.84 111 1.85 290 1.97 301 2.02 367 2.10 265 2.11 383 3.36 447 3.40
                           411 3.42 408 3.44 452 3.58 470 3.59 435 3.90 398 3.98
 490  0.081  0.701  0.506- 130 1.84 312 1.85 292 1.94  70 2.06 266 2.09 368 2.11 447 3.38 397 3.40
                           436 3.42 383 3.42 419 3.43 451 3.54 463 3.59
 491  0.417  0.701  0.501- 268 1.90 287 1.93 307 1.95 370 1.98  53 1.98  92 2.13 392 3.41 466 3.44
                           441 3.44 455 3.45 418 3.46 382 3.46 445 3.47 388 3.48
 492  0.417  0.499  0.501- 380 1.91 267 1.96 286 1.96  55 1.96  90 1.98 306 2.07 454 3.43 469 3.44
                           418 3.45 388 3.45 423 3.46 381 3.47 434 3.48 440 3.50
 493  0.416  0.297  0.503- 109 1.84 379 1.94 291 1.95 315 1.98 311 2.05 275 2.07 393 3.37 384 3.39
                           423 3.46 453 3.47 381 3.47 468 3.49 433 3.68 442 3.85
 494  0.751  0.903  0.502- 303 1.83 273 1.93  58 1.94 131 2.00  98 2.05 335 2.07 406 3.37 409 3.40
                           450 3.46 389 3.48 431 3.48 461 3.48 430 3.72 422 3.99
 495  0.249  0.300  0.507-  99 1.84 302 1.88 329 1.96 291 2.00 336 2.09 274 2.12 381 3.36 386 3.39
                           387 3.40 393 3.43 459 3.57 453 3.59 442 3.74 443 3.95
 496  0.248  0.700  0.503-  70 1.89 101 1.92 214 1.98 339 1.99 277 1.99 287 2.08 419 3.42 388 3.43
                           383 3.45 441 3.45 463 3.46 392 3.48 455 3.52 436 3.64
 497  0.247  0.498  0.503- 100 1.85  88 1.90 338 1.96 216 1.98 260 2.06 286 2.07 440 3.29 386 3.37
[...]
  345        fft3d_mpi                            59.019182                         2741   3
  346          fftbrc_mpi                           58.142569                       2741   4
  347            fftbas_plan_mpi                      58.134031                     2741   5
  348              dfftw_execute                         3.671453                   8223   6
  349              map_forward                          28.712481                   2754   6
  350                map_gather                            0.088950                 1390   7
  351                m_alltoallv_z                        27.387109                 1390   7
  352                map_scatter                           1.212211                 1390   7
  353              map_backward                         23.662150                   2728   6
  354                map_gather                            0.999781                 1364   7
  355                m_alltoallv_z                        22.505775                 1364   7
  356                map_scatter                           0.130067                 1364   7
  357        ggaall_grid                          24.467402                          237   3
  358        m_sumb_d                              1.803444                         1224   3
  359        fewald                                0.019195                           26   3
  360          rsp                                   0.017601                         26   4
  361          rcp                                   0.001293                         26   4
  362        pothar                                0.050837                           13   3
  363          m_sumb_d                              0.047965                         13   4
  364        m_bcast_d                             0.394224                           13   3
  365      potlok_metagga                        0.000030                             13   2
  366      set_dd_magatom                        0.000007                              7   2
  367      set_dd_paw                            0.190090                             13   2
  368        set_rsgf_all                          0.000028                           13   3
  369        m_sumb_d                              0.186989                           91   3
  370      wavpre_noio                           0.851118                              6   2
  371        stufak                                0.822723                            6   3
  372      eddiag                              235.729672                              6   2
  373        overl                                 0.004117                            6   3
  374        redis_proj                           19.764111                           18   3
  375          m_alltoall_d                         19.760059                       1026   4
  376        fftwav_mpi                            1.983884                          342   3
  377          fft3d_mpi                             1.798756                        342   4
  378            fftbrc_mpi                            1.564742                      342   5
  379              fftbas_plan_mpi                       1.563697                    342   6
  380                dfftw_execute                         0.661351                 1026   7
  381                map_forward                           0.695210                  684   7
  382                  map_gather                            0.039891                342   8
  383                  m_alltoallv_z                         0.442684                342   8
  384                  map_scatter                           0.084573                342   8
  385        hamilt_local                          1.481591                          342   3
  386          vhamil                                0.200904                        342   4
  387          kinhamil                              1.277711                        342   4
  388            fftext_mpi                            1.263557                      342   5
  389              fft3d_mpi                             1.233824                    342   6
  390                fftbrc_mpi                            1.034664                  342   7
  391                  fftbas_plan_mpi                       1.033434                342   8
  392                    dfftw_execute                         0.569731             1026   9
  393                    map_backward                          0.259358              684   9
  394                      map_gather                            0.074474            342  10
  395                      m_alltoallv_z                         0.117720            342  10
  396                      map_scatter                           0.061201            342  10
  397        redis_pw                              3.554581                          690   3
  398          m_alltoall_d                          3.511488                       1026   4
  399        orth1                                 0.965502                          342   3
  400        m_sumb_d                              4.850952                            6   3
  401        shift_bands_between_low_high          0.000010                            6   3
  402        lincom                                1.203963                            6   3
  403      set_charge                            2.295694                              6   2
  404        soft_charge                           1.845634                            6   3
  405          fftwav_mpi                            1.374487                        288   4
  406            fft3d_mpi                             1.233135                      288   5
  407              fftbrc_mpi                            1.042539                    288   6
  408                fftbas_plan_mpi                       1.041595                  288   7
  409                  dfftw_execute                         0.550371                864   8
  410                  map_forward                           0.307418                576   8
  411                    map_gather                            0.031767              288   9
  412                    m_alltoallv_z                         0.105795              288   9
  413                    map_scatter                           0.068875              288   9
  414          pw_charge                             0.163164                        288   4
  415          m_sumb_d                              0.195482                          6   4
  416          fft_gq                                0.100886                          6   4
  417            fft3d_mpi                             0.099615                        6   5
  418              fftbrc_mpi                            0.097410                      6   6
  419                fftbas_plan_mpi                       0.097394                    6   7
  420                  dfftw_execute                         0.006409                 18   8
  421                  map_backward                          0.087386                 12   8
  422                    map_gather                            0.003125               12   9
  423                    m_alltoallv_z                         0.083285               12   9
  424                    map_scatter                           0.000810               12   9
  425        depsum                                0.125311                            6   3
  426          m_sumb_d                              0.122050                          6   4
  427        augmentation_charge                   0.323397                            6   3
  428          m_sumb_d                              0.020863                          6   4
  429          fft3d_mpi                             0.071378                          6   4
  430            fftbrc_mpi                            0.069381                        6   5
  431              fftbas_plan_mpi                       0.069362                      6   6
  432                dfftw_execute                         0.007349                   18   7
  433                map_backward                          0.057288                   12   7
  434                  map_gather                            0.003623                  6   8
  435                  m_alltoallv_z                         0.052956                  6   8
  436                  map_scatter                           0.000600                  6   8
 
 Flat profile
 ============
 
             routine name                   CPU           calls
 ---------------------------------------------------------------
 edwav                               22655.479078        1000
 m_sumb_d                             1946.451024      448966
 m_alltoall_d                         1419.279506      983090
 m_alltoallv_z                        1417.758796      280492
 potlok                               1328.344664        1014
 choleski                              651.143303        1007
 total_time                            636.886410           1
 lincom                                538.039098        3025
 dfftw_execute                         473.137428      835413
 eddiag                                387.041795         513
 ggaall_grid                           279.925215        1245
 orth1                                 246.163109       89796
 fftbas_plan_mpi                       180.163333      278471
 eddav                                 159.005855           5
 fft3d_mpi                             151.702790      278471
 map_scatter                            82.377482      280492
 fftwav_mpi                             72.132095      141344
 eccp                                   67.531056      114285
 map_gather                             60.627754      280492
 racc0                                  55.020452       29552
 map_forward                            51.601491      360024
 rpro1                                  50.881045       29267
 m_bcast_z                              43.666350        2793
 setdij_                                42.587354        1197
 augmentation_charge                    39.491958        1007
 pw_charge                              26.635446       48097
 orthch                                 24.401991        1007
 vhamil                                 17.978367       30293
 w1_dscal                               11.903834       28500
 lapack                                 11.139132        1052
 m_bcast_d                              10.724653        4199
 redis_pw                                9.969796      120890
 force_and_stress                        9.373985           7
 fftext_mpi                              5.606217       58793
 rpromu                                  4.603571        1365
 rspher_all                              3.986574          92
 redis_proj                              3.837569      100208
 ggemm                                   3.675627        1337
 elmin_all                               2.791476           7
 rpromu_gemm                             2.468502      379470
 overl                                   2.277144       32339
 soft_charge                             1.875137        1007
 map_backward                            1.818153      196918
 forloc                                  1.469236           7
 forhar                                  1.465041           7
 rsp                                     1.453058        2035
 kinhamil                                1.314653       30293
 stufak                                  0.958709           7
 fftbrc_mpi                              0.942843      278471
 densta                                  0.845289        1018
 depsum                                  0.586438        1007
 set_charge                              0.390279        1007
 set_dd_paw                              0.313383        1021
 hamilt_local                            0.251652       29241
 pothar                                  0.209741        1014
 fft_gq                                  0.200398        1007
 w1_copy                                 0.143743        3156
 rpro_isp                                0.120453          91
 rcp                                     0.108903        2035
 fewald                                  0.076291        2035
 strnlr                                  0.073329           7
 apply_precond                           0.046250         767
 overl1                                  0.040649        1052
 wavpre_noio                             0.028395           6
 setup_precond                           0.028168         285
 fornlr                                  0.020014           7
 strkin                                  0.019396           7
 strehar                                 0.017344           7
 hamiltmu                                0.016574        1052
 strelo                                  0.014429           7
 newband                                 0.012871        1057
 raccmu_                                 0.011717        1052
 redis_pw_all                            0.006974        1000
 redis_pw_over_bands                     0.004654        1013
 w1_projall                              0.004023         767
 set_rsgf_all                            0.002352        1021
 fordep                                  0.001739           7
 truncate_high_frequency_w1              0.001515        1337
 potlok_metagga                          0.001416        1014
 brgrid                                  0.000545           1
 phaser                                  0.000489         596
 crpa_reader                             0.000265           1
 rotate_active_occupied_orbital          0.000126           7
 proall                                  0.000110           7
 set_dd_magatom                          0.000046          14
 vectorpot                               0.000034           1
 shift_bands_between_low_high            0.000019          13
 ---------------------------------------------------------------
  summed up times    33202.7091691494     
 
 Accumulative profile
 ====================
 
             routine name                   CPU           calls
 ---------------------------------------------------------------
 total_time                          33202.709169           1
 elmin_all                           31911.336757           7
 edwav                               27682.336493        1000
 potlok                               3192.008407        1014
 fft3d_mpi                            2420.130070      278471
 fftbrc_mpi                           2268.427280      278471
 fftbas_plan_mpi                      2267.484437      278471
 m_sumb_d                             1946.451024      448966
 orthch                               1853.030622        1007
 m_alltoall_d                         1419.279506      983090
 m_alltoallv_z                        1417.758796      280492
 map_forward                          1034.212710      360024
 redis_proj                            898.582411      100208
 fftwav_mpi                            705.039114      141344
 choleski                              651.143303        1007
 eddiag                                620.304804         513
 map_backward                          579.970966      196918
 lincom                                538.039098        3025
 redis_pw                              534.504460      120890
 dfftw_execute                         473.137428      835413
 set_charge                            384.109493        1007
 soft_charge                           315.856841        1007
 ggaall_grid                           279.925215        1245
 eddav                                 251.126143           5
 orth1                                 246.163109       89796
 fftext_mpi                            218.682806       58793
 hamilt_local                          126.414587       29241
 kinhamil                              112.790390       30293
 map_scatter                            82.377482      280492
 racc0                                  79.472069       29552
 eccp                                   75.099541      114285
 redis_pw_over_bands                    73.389069        1013
 redis_pw_all                           73.384415        1000
 setdij_                                72.712908        1197
 force_and_stress                       72.080384           7
 map_gather                             60.627754      280492
 augmentation_charge                    60.606117        1007
 rpro1                                  58.435321       29267
 m_bcast_z                              43.666350        2793
 densta                                 42.626689        1018
 rpro_isp                               32.356465          91
 strnlr                                 27.405300           7
 pw_charge                              26.635446       48097
 vhamil                                 17.978367       30293
 set_dd_paw                             16.030782        1021
 w1_dscal                               11.903834       28500
 lapack                                 11.139132        1052
 m_bcast_d                              10.724653        4199
 fornlr                                  9.507383           7
 fft_gq                                  9.285725        1007
 rpromu                                  7.791850        1365
 depsum                                  7.256256        1007
 hamiltmu                                6.851963        1052
 rspher_all                              3.986574          92
 pothar                                  3.909030        1014
 ggemm                                   3.675627        1337
 newband                                 3.028863        1057
 proall                                  2.532665           7
 rpromu_gemm                             2.468502      379470
 fordep                                  2.377949           7
 overl                                   2.277144       32339
 raccmu_                                 2.229567        1052
 fewald                                  2.132238        2035
 forhar                                  1.599644           7
 forloc                                  1.592707           7
 w1_projall                              1.514950         767
 rsp                                     1.453058        2035
 stufak                                  0.958709           7
 wavpre_noio                             0.851118           6
 w1_copy                                 0.143743        3156
 rcp                                     0.108903        2035
 apply_precond                           0.046250         767
 overl1                                  0.040649        1052
 strelo                                  0.040275           7
 setup_precond                           0.039836         285
 strkin                                  0.025735           7
 strehar                                 0.024222           7
 set_rsgf_all                            0.002352        1021
 truncate_high_frequency_w1              0.001515        1337
 potlok_metagga                          0.001416        1014
 brgrid                                  0.000545           1
 phaser                                  0.000489         596
 crpa_reader                             0.000265           1
 rotate_active_occupied_orbital          0.000126           7
 set_dd_magatom                          0.000046          14
 vectorpot                               0.000034           1
 shift_bands_between_low_high            0.000019          13
 ---------------------------------------------------------------
 
Profiling took   7.055444  2.261695  0.007198  0.006264 seconds
Profiling took   8.728419 seconds
