 vasp.6.3.2 27Jun22 (build Jan 03 2024 23:05:41) complex                        
  
 executed on           IFC15_impi date 2024.03.20  22:32:06
 running  256 mpi-ranks, with    1 threads/rank
 distrk:  each k-point on  256 cores,    1 groups
 distr:  one band on NCORE=   8 cores,   32 groups


--------------------------------------------------------------------------------------------------------


 INCAR:
   ENCUT = 500.000000
   SIGMA = 0.010000
   EDIFF = 1.00e-05
   ALGO = A
   ISMEAR = 0
   NELM = 200
   NSW = 500
   NCORE = 8
   LCHARG = .FALSE.
   LWAVE = .FALSE.
   LREAL = Auto
   IBRION = 2
   EDIFFG = -0.02
   DIPOL = 0.5 0.5 0.5
   IDIPOL = 3
   LDIPOL = .TRUE.
   GGA = BF
   LUSE_VDW = .TRUE.
   ZAB_VDW = -1.8867
   LBEEFENS = .TRUE.

 POTCAR:    PAW_PBE Cu 22Jun2005                  
 -----------------------------------------------------------------------------
|                                                                             |
|               ----> ADVICE to this user running VASP <----                  |
|                                                                             |
|     You have switched on vdW-DFT.                                           |
|     This routine was written and supplied by Jiri Klimes. We recommend      |
|     that you carefully read and cite the following publications:            |
|       J. Klimes, D.R. Bowler, A. Michelides                                 |
|          J. Phys.: Cond Matt. 22 022201 (2010)                              |
|       J. Klimes, D.R. Bowler, A. Michelides                                 |
|          Phys. Rev. B. 83, 195131 (2011)                                    |
|     and references therein.                                                 |
|                                                                             |
 -----------------------------------------------------------------------------

 POTCAR:    PAW_PBE Cu 22Jun2005                  
   SHA256 =  0e71e558f37a4e8407882b4609ceaae59938afaad9ced71dfe8490308a0ab630 Cu/POTCAR             
   COPYR  = (c) Copyright 22Jun2005 Georg Kresse                                                    
   COPYR  = This file is part of the software VASP. Any use, copying, and all other rights are regul
   COPYR  = If you do not have a valid VASP license, you may not use, copy or distribute this file. 
   VRHFIN =Cu: d10 p1                                                                               
   LEXCH  = PE                                                                                      
   EATOM  =  1390.9808 eV,  102.2342 Ry                                                             
                                                                                                    
   TITEL  = PAW_PBE Cu 22Jun2005                                                                    
   LULTRA =        F    use ultrasoft PP ?                                                          
   IUNSCR =        1    unscreen: 0-lin 1-nonlin 2-no                                               
   RPACOR =    2.000    partial core radius                                                         
   POMASS =   63.546; ZVAL   =   11.000    mass and valenz                                          
   RCORE  =    2.300    outmost cutoff radius                                                       
   RWIGS  =    2.200; RWIGS  =    1.164    wigner-seitz radius (au A)                               
   ENMAX  =  295.446; ENMIN  =  221.585 eV                                                          
   ICORE  =        3    local potential                                                             
   LCOR   =        T    correct aug charges                                                         
   LPAW   =        T    paw PP                                                                      
   EAUG   =  586.980                                                                                
   DEXC   =    0.000                                                                                
   RMAX   =    2.344    core radius for proj-oper                                                   
   RAUG   =    1.300    factor for augmentation sphere                                              
   RDEP   =    2.302    radius for radial grids                                                     
   RDEPT  =    1.771    core radius for aug-charge                                                  
                                                                                                    
   Atomic configuration                                                                             
    9 entries                                                                                       
     n  l   j            E        occ.                                                              
     1  0  0.50     -8850.2468   2.0000                                                             
     2  0  0.50     -1062.3498   2.0000                                                             
     2  1  1.50      -916.8226   6.0000                                                             
     3  0  0.50      -114.6929   2.0000                                                             
     3  1  1.50       -72.1325   6.0000                                                             
     3  2  2.50        -5.0394  10.0000                                                             
     4  0  0.50        -4.6097   1.0000                                                             
     4  1  0.50        -4.0817   0.0000                                                             
     4  3  2.50        -1.3606   0.0000                                                             
   Description                                                                                      
     l       E           TYP  RCUT    TYP  RCUT                                                     
     2     -5.0393973     23  2.200                                                                 
     2     10.8846608     23  2.200                                                                 
     0     -4.6097109     23  2.200                                                                 
     0      8.2520465     23  2.200                                                                 
     1     -2.7211652     23  2.200                                                                 
     1     21.7055443     23  2.200                                                                 
     3      2.7211652     23  2.300                                                                 
  local pseudopotential read in
  partial core-charges read in
  partial kinetic energy density read in
  atomic valenz-charges read in
  non local Contribution for L=           2  read in
    real space projection operators read in
  non local Contribution for L=           2  read in
    real space projection operators read in
  non local Contribution for L=           0  read in
    real space projection operators read in
  non local Contribution for L=           0  read in
    real space projection operators read in
  non local Contribution for L=           1  read in
    real space projection operators read in
  non local Contribution for L=           1  read in
    real space projection operators read in
    PAW grid and wavefunctions read in
 
   number of l-projection  operators is LMAX  =           6
   number of lm-projection operators is LMMAX =          18
 
 Optimization of the real space projectors (new method)

 maximal supplied QI-value         = 16.25
 optimisation between [QCUT,QGAM] = [ 11.38, 22.75] = [ 36.24,144.96] Ry 
 Optimized for a Real-space Cutoff    1.52 Angstroem

   l    n(q)    QCUT    max X(q) W(low)/X(q) W(high)/X(q)  e(spline) 
   2      9    11.376     4.610    0.21E-03    0.10E-03    0.26E-06
   2      9    11.376     8.522    0.33E-03    0.16E-03    0.37E-06
   0     10    11.376    51.609    0.62E-04    0.20E-04    0.13E-06
   0     10    11.376    27.747    0.54E-04    0.20E-04    0.13E-06
   1     10    11.376    20.408    0.13E-04    0.99E-04    0.19E-06
   1     10    11.376    13.425    0.12E-04    0.87E-04    0.17E-06
 -----------------------------------------------------------------------------
|                                                                             |
|               ----> ADVICE to this user running VASP <----                  |
|                                                                             |
|     You enforced a specific xc type in the INCAR file but a different       |
|     type was found in the POTCAR file.                                      |
|     I HOPE YOU KNOW WHAT YOU ARE DOING!                                     |
|                                                                             |
 -----------------------------------------------------------------------------

  PAW_PBE Cu 22Jun2005                  :
 energy of atom  1       EATOM=-1390.9808
 kinetic energy error for atom=    0.0043 (will be added to EATOM!!)
 
 
 POSCAR: Cu
  positions in cartesian coordinates
  No initial velocities read in
 exchange correlation table for  LEXCH =       17
   RHO(1)=    0.500       N(1)  =     2000
   RHO(2)=  100.500       N(2)  =     4000

 VTST: version 4.1, (05/19/21)

 CHAIN: initializing optimizer
 
 OPT: Using VASP Conjugate-Gradient optimizer
 CHAIN: Read ICHAIN            0
 
 POSCAR: Cu
  positions in cartesian coordinates
  No initial velocities read in
 


--------------------------------------------------------------------------------------------------------


 ion  position               nearest neighbor table
   1  0.333  0.083  0.644-  38 2.55  37 2.55   2 2.55  31 2.55  14 2.55   6 2.55  13 2.55
   2  0.333  0.250  0.644-  38 2.55  39 2.55   1 2.55   3 2.55  32 2.55  15 2.55  14 2.55
   3  0.333  0.417  0.644-  39 2.55  40 2.55   2 2.55  33 2.55  15 2.55   4 2.55  16 2.55
   4  0.333  0.583  0.644-  41 2.55  40 2.55   5 2.55  34 2.55  17 2.55   3 2.55  16 2.55
   5  0.333  0.750  0.644-  41 2.55  42 2.55   4 2.55   6 2.55  35 2.55  18 2.55  17 2.55
   6  0.333  0.917  0.644-  42 2.55  37 2.55   5 2.55  36 2.55  18 2.55   1 2.55  13 2.55
   7  0.833  0.083  0.644-  44 2.55  43 2.55   8 2.55  25 2.55  20 2.55  12 2.55  19 2.55
   8  0.833  0.250  0.644-  44 2.55  45 2.55   7 2.55   9 2.55  26 2.55  21 2.55  20 2.55
   9  0.833  0.417  0.644-  45 2.55  46 2.55   8 2.55  27 2.55  21 2.55  10 2.55  22 2.55
  10  0.833  0.583  0.644-  47 2.55  46 2.55  11 2.55  28 2.55  23 2.55   9 2.55  22 2.55
  11  0.833  0.750  0.644-  47 2.55  48 2.55  10 2.55  12 2.55  29 2.55  24 2.55  23 2.55
  12  0.833  0.917  0.644-  48 2.55  43 2.55  11 2.55  30 2.55  24 2.55   7 2.55  19 2.55
  13  0.167  0.000  0.618-  49 2.55  54 2.55  14 2.55  18 2.55  37 2.55  30 2.55  25 2.55   6 2.55
                             1 2.55
  14  0.167  0.167  0.618-  49 2.55  50 2.55  25 2.55  13 2.55  38 2.55  26 2.55   1 2.55  15 2.55
                             2 2.55
  15  0.167  0.333  0.618-  51 2.55  50 2.55  27 2.55  16 2.55  39 2.55  26 2.55   3 2.55  14 2.55
                             2 2.55
  16  0.167  0.500  0.618-  51 2.55  52 2.55  15 2.55  17 2.55  40 2.55  28 2.55  27 2.55   4 2.55
                             3 2.55
  17  0.167  0.667  0.618-  52 2.55  53 2.55  28 2.55  16 2.55  41 2.55  29 2.55   4 2.55  18 2.55
                             5 2.55
  18  0.167  0.833  0.618-  54 2.55  53 2.55  30 2.55  13 2.55  42 2.55  29 2.55   6 2.55  17 2.55
                             5 2.55
  19  0.667  0.000  0.618-  55 2.55  60 2.55  20 2.55  24 2.55  43 2.55  36 2.55  31 2.55  12 2.55
                             7 2.55
  20  0.667  0.167  0.618-  55 2.55  56 2.55  31 2.55  19 2.55  44 2.55  32 2.55   7 2.55  21 2.55
                             8 2.55
  21  0.667  0.333  0.618-  57 2.55  56 2.55  33 2.55  22 2.55  45 2.55  32 2.55   9 2.55  20 2.55
                             8 2.55
  22  0.667  0.500  0.618-  57 2.55  58 2.55  21 2.55  23 2.55  46 2.55  34 2.55  33 2.55  10 2.55
                             9 2.55
  23  0.667  0.667  0.618-  58 2.55  59 2.55  34 2.55  22 2.55  47 2.55  35 2.55  10 2.55  24 2.55
                            11 2.55
  24  0.667  0.833  0.618-  60 2.55  59 2.55  36 2.55  19 2.55  48 2.55  35 2.55  12 2.55  23 2.55
                            11 2.55
  25  0.000  0.083  0.592-  62 2.55  44 2.55  49 2.55  61 2.55  43 2.55  14 2.55  26 2.55  13 2.55
                             7 2.55  30 2.55
  26  0.000  0.250  0.592-  50 2.55  62 2.55  63 2.55  45 2.55  44 2.55  27 2.55  25 2.55  15 2.55
                            14 2.55   8 2.55
  27  0.000  0.417  0.592-  63 2.55  45 2.55  51 2.55  64 2.55  46 2.55  15 2.55  26 2.55  16 2.55
                             9 2.55  28 2.55
  28  0.000  0.583  0.592-  65 2.55  47 2.55  52 2.55  64 2.55  46 2.55  17 2.55  29 2.55  16 2.55
                            10 2.55  27 2.55
  29  0.000  0.750  0.592-  53 2.55  65 2.55  66 2.55  48 2.55  47 2.55  30 2.55  28 2.55  18 2.55
                            17 2.55  11 2.55
  30  0.000  0.917  0.592-  66 2.55  48 2.55  54 2.55  61 2.55  43 2.55  18 2.55  29 2.55  13 2.55
                            12 2.55  25 2.55
  31  0.500  0.083  0.592-  68 2.55  38 2.55  55 2.55  67 2.55  37 2.55  20 2.55  32 2.55  19 2.55
                             1 2.55  36 2.55
  32  0.500  0.250  0.592-  56 2.55  68 2.55  69 2.55  39 2.55  38 2.55  33 2.55  31 2.55  21 2.55
                            20 2.55   2 2.55
  33  0.500  0.417  0.592-  69 2.55  39 2.55  57 2.55  70 2.55  40 2.55  21 2.55  32 2.55  22 2.55
                             3 2.55  34 2.55
  34  0.500  0.583  0.592-  71 2.55  41 2.55  58 2.55  70 2.55  40 2.55  23 2.55  35 2.55  22 2.55
                             4 2.55  33 2.55
  35  0.500  0.750  0.592-  59 2.55  71 2.55  72 2.55  42 2.55  41 2.55  36 2.55  34 2.55  24 2.55
                            23 2.55   5 2.55
  36  0.500  0.917  0.592-  72 2.55  42 2.55  60 2.55  67 2.55  37 2.55  24 2.55  35 2.55  19 2.55
                             6 2.55  31 2.55
  37  0.333  0.000  0.566-   1 2.55   6 2.55  31 2.55  36 2.55  38 2.55  42 2.55  13 2.55  67 2.55
                            54 2.55  49 2.55  73 2.55  78 2.55
  38  0.333  0.167  0.566-   1 2.55  31 2.55   2 2.55  32 2.55  37 2.55  14 2.55  68 2.55  49 2.55
                            73 2.55  39 2.55  50 2.55  74 2.55
  39  0.333  0.333  0.566-   3 2.55  33 2.55   2 2.55  32 2.55  40 2.55  15 2.55  69 2.55  51 2.55
                            75 2.55  38 2.55  50 2.55  74 2.55
  40  0.333  0.500  0.566-   3 2.55   4 2.55  33 2.55  34 2.55  39 2.55  41 2.55  16 2.55  70 2.55
                            52 2.55  51 2.55  75 2.55  76 2.55
  41  0.333  0.667  0.566-   4 2.55  34 2.55   5 2.55  35 2.55  40 2.55  17 2.55  71 2.55  52 2.55
                            76 2.55  42 2.55  53 2.55  77 2.55
  42  0.333  0.833  0.566-   6 2.55  36 2.55   5 2.55  35 2.55  37 2.55  18 2.55  72 2.55  54 2.55
                            78 2.55  41 2.55  53 2.55  77 2.55
  43  0.833  0.000  0.566-   7 2.55  12 2.55  25 2.55  30 2.55  44 2.55  48 2.55  19 2.55  61 2.55
                            60 2.55  55 2.55  79 2.55  84 2.55
  44  0.833  0.167  0.566-   7 2.55  25 2.55   8 2.55  26 2.55  43 2.55  20 2.55  62 2.55  55 2.55
                            79 2.55  45 2.55  56 2.55  80 2.55
  45  0.833  0.333  0.566-   9 2.55  27 2.55   8 2.55  26 2.55  46 2.55  21 2.55  63 2.55  57 2.55
                            81 2.55  44 2.55  56 2.55  80 2.55
  46  0.833  0.500  0.566-   9 2.55  10 2.55  27 2.55  28 2.55  45 2.55  47 2.55  22 2.55  64 2.55
                            58 2.55  57 2.55  81 2.55  82 2.55
  47  0.833  0.667  0.566-  10 2.55  28 2.55  11 2.55  29 2.55  46 2.55  23 2.55  65 2.55  58 2.55
                            82 2.55  48 2.55  59 2.55  83 2.55
  48  0.833  0.833  0.566-  12 2.55  30 2.55  11 2.55  29 2.55  43 2.55  24 2.55  66 2.55  60 2.55
                            84 2.55  47 2.55  59 2.55  83 2.55
  49  0.167  0.083  0.539-  14 2.55  25 2.55  13 2.55  62 2.55  50 2.55  61 2.55  38 2.55  86 2.55
                            54 2.55  37 2.55  73 2.55  85 2.55
  50  0.167  0.250  0.539-  26 2.55  15 2.55  14 2.55  49 2.55  51 2.55  62 2.55  63 2.55  38 2.55
                            39 2.55  74 2.55  86 2.55  87 2.55
  51  0.167  0.417  0.539-  15 2.55  27 2.55  16 2.55  63 2.55  50 2.55  64 2.55  39 2.55  87 2.55
                            52 2.55  40 2.55  75 2.55  88 2.55
  52  0.167  0.583  0.539-  17 2.55  28 2.55  16 2.55  65 2.55  53 2.55  64 2.55  41 2.55  89 2.55
                            51 2.55  40 2.55  76 2.55  88 2.55
  53  0.167  0.750  0.539-  29 2.55  18 2.55  17 2.55  52 2.55  54 2.55  65 2.55  66 2.55  41 2.55
                            42 2.55  77 2.55  89 2.55  90 2.55
  54  0.167  0.917  0.539-  18 2.55  30 2.55  13 2.55  66 2.55  53 2.55  61 2.55  42 2.55  90 2.55
                            49 2.55  37 2.55  78 2.55  85 2.55
  55  0.667  0.083  0.539-  20 2.55  31 2.55  19 2.55  68 2.55  56 2.55  67 2.55  44 2.55  92 2.55
                            60 2.55  43 2.55  79 2.55  91 2.55
  56  0.667  0.250  0.539-  32 2.55  21 2.55  20 2.55  55 2.55  57 2.55  68 2.55  69 2.55  44 2.55
                            45 2.55  80 2.55  92 2.55  93 2.55
  57  0.667  0.417  0.539-  21 2.55  33 2.55  22 2.55  69 2.55  56 2.55  70 2.55  45 2.55  93 2.55
                            58 2.55  46 2.55  81 2.55  94 2.55
  58  0.667  0.583  0.539-  23 2.55  34 2.55  22 2.55  71 2.55  59 2.55  70 2.55  47 2.55  95 2.55
                            57 2.55  46 2.55  82 2.55  94 2.55
  59  0.667  0.750  0.539-  35 2.55  24 2.55  23 2.55  58 2.55  60 2.55  71 2.55  72 2.55  47 2.55
                            48 2.55  83 2.55  95 2.55  96 2.55
  60  0.667  0.917  0.539-  24 2.55  36 2.55  19 2.55  72 2.55  59 2.55  67 2.55  48 2.55  96 2.55
                            55 2.55  43 2.55  84 2.55  91 2.55
  61  0.000  0.000  0.513-  25 2.55  30 2.55  62 2.55  66 2.55  49 2.55  54 2.55  79 2.55  84 2.55
                            43 2.55  85 2.55  97 2.55 102 2.55
  62  0.000  0.167  0.513-  25 2.55  26 2.55  49 2.55  79 2.55  61 2.55  50 2.55  80 2.55  44 2.55
                            86 2.55  97 2.55  63 2.55  98 2.55
  63  0.000  0.333  0.513-  27 2.55  26 2.55  51 2.55  81 2.55  64 2.55  80 2.55  50 2.55  45 2.55
                            87 2.55  99 2.55  62 2.55  98 2.55
  64  0.000  0.500  0.513-  27 2.55  28 2.55  63 2.55  65 2.55  51 2.55  52 2.55  81 2.55  82 2.55
                            46 2.55  88 2.55  99 2.55 100 2.55
  65  0.000  0.667  0.513-  28 2.55  29 2.55  52 2.55  82 2.55  64 2.55  53 2.55  83 2.55  47 2.55
                            89 2.55 100 2.55  66 2.55 101 2.55
  66  0.000  0.833  0.513-  30 2.55  29 2.55  54 2.55  84 2.55  61 2.55  83 2.55  53 2.55  48 2.55
                            90 2.55 102 2.55  65 2.55 101 2.55
  67  0.500  0.000  0.513-  31 2.55  36 2.55  68 2.55  72 2.55  55 2.55  60 2.55  73 2.55  78 2.55
                            37 2.55  91 2.55 103 2.55 108 2.55
  68  0.500  0.167  0.513-  31 2.55  32 2.55  55 2.55  73 2.55  67 2.55  56 2.55  74 2.55  38 2.55
                            92 2.55 103 2.55  69 2.55 104 2.55
  69  0.500  0.333  0.513-  33 2.55  32 2.55  57 2.55  75 2.55  70 2.55  74 2.55  56 2.55  39 2.55
                            93 2.55 105 2.55  68 2.55 104 2.55
  70  0.500  0.500  0.513-  33 2.55  34 2.55  69 2.55  71 2.55  57 2.55  58 2.55  75 2.55  76 2.55
                            40 2.55  94 2.55 105 2.55 106 2.55
  71  0.500  0.667  0.513-  34 2.55  35 2.55  58 2.55  76 2.55  70 2.55  59 2.55  77 2.55  41 2.55
                            95 2.55 106 2.55  72 2.55 107 2.55
  72  0.500  0.833  0.513-  36 2.55  35 2.55  60 2.55  78 2.55  67 2.55  77 2.55  59 2.55  42 2.55
                            96 2.55 108 2.55  71 2.55 107 2.55
  73  0.333  0.083  0.487- 110 2.55 109 2.55  68 2.55  74 2.55  67 2.55 103 2.55  86 2.55  38 2.55
                            78 2.55  85 2.55  49 2.55  37 2.55
  74  0.333  0.250  0.487- 110 2.55 111 2.55  73 2.55  75 2.55  68 2.55  69 2.55 104 2.55  87 2.55
                            86 2.55  50 2.55  38 2.55  39 2.55
  75  0.333  0.417  0.487- 111 2.55 112 2.55  69 2.55  74 2.55  70 2.55 105 2.55  87 2.55  39 2.55
                            76 2.55  88 2.55  51 2.55  40 2.55
  76  0.333  0.583  0.487- 113 2.55 112 2.55  71 2.55  77 2.55  70 2.55 106 2.55  89 2.55  41 2.55
                            75 2.55  88 2.55  52 2.55  40 2.55
  77  0.333  0.750  0.487- 113 2.55 114 2.55  76 2.55  78 2.55  71 2.55  72 2.55 107 2.55  90 2.55
                            89 2.55  53 2.55  41 2.55  42 2.55
  78  0.333  0.917  0.487- 114 2.55 109 2.55  72 2.55  77 2.55  67 2.55 108 2.55  90 2.55  42 2.55
                            73 2.55  85 2.55  54 2.55  37 2.55
  79  0.833  0.083  0.487- 116 2.55 115 2.55  62 2.55  80 2.55  61 2.55  97 2.55  92 2.55  44 2.55
                            84 2.55  91 2.55  55 2.55  43 2.55
  80  0.833  0.250  0.487- 116 2.55 117 2.55  79 2.55  81 2.55  62 2.55  63 2.55  98 2.55  93 2.55
                            92 2.55  56 2.55  44 2.55  45 2.55
  81  0.833  0.417  0.487- 117 2.55 118 2.55  63 2.55  80 2.55  64 2.55  99 2.55  93 2.55  45 2.55
                            82 2.55  94 2.55  57 2.55  46 2.55
  82  0.833  0.583  0.487- 119 2.55 118 2.55  65 2.55  83 2.55  64 2.55 100 2.55  95 2.55  47 2.55
                            81 2.55  94 2.55  58 2.55  46 2.55
  83  0.833  0.750  0.487- 119 2.55 120 2.55  82 2.55  84 2.55  65 2.55  66 2.55 101 2.55  96 2.55
                            95 2.55  59 2.55  47 2.55  48 2.55
  84  0.833  0.917  0.487- 120 2.55 115 2.55  66 2.55  83 2.55  61 2.55 102 2.55  96 2.55  48 2.55
                            79 2.55  91 2.55  60 2.55  43 2.55
  85  0.167  0.000  0.461- 121 2.55 126 2.55  86 2.55  90 2.55 109 2.55 102 2.55  97 2.55  61 2.55
                            78 2.55  73 2.55  49 2.55  54 2.55
  86  0.167  0.167  0.461- 121 2.55 122 2.55  97 2.55  85 2.55 110 2.55  98 2.55  62 2.55  73 2.55
                            49 2.55  87 2.55  74 2.55  50 2.55
  87  0.167  0.333  0.461- 123 2.55 122 2.55  99 2.55  88 2.55 111 2.55  98 2.55  63 2.55  75 2.55
                            51 2.55  86 2.55  74 2.55  50 2.55
  88  0.167  0.500  0.461- 123 2.55 124 2.55  87 2.55  89 2.55 112 2.55 100 2.55  99 2.55  64 2.55
                            76 2.55  75 2.55  51 2.55  52 2.55
  89  0.167  0.667  0.461- 124 2.55 125 2.55 100 2.55  88 2.55 113 2.55 101 2.55  65 2.55  76 2.55
                            52 2.55  90 2.55  77 2.55  53 2.55
  90  0.167  0.833  0.461- 126 2.55 125 2.55 102 2.55  85 2.55 114 2.55 101 2.55  66 2.55  78 2.55
                            54 2.55  89 2.55  77 2.55  53 2.55
  91  0.667  0.000  0.461- 127 2.55 132 2.55  92 2.55  96 2.55 115 2.55 108 2.55 103 2.55  67 2.55
                            84 2.55  79 2.55  55 2.55  60 2.55
  92  0.667  0.167  0.461- 127 2.55 128 2.55 103 2.55  91 2.55 116 2.55 104 2.55  68 2.55  79 2.55
                            55 2.55  93 2.55  80 2.55  56 2.55
  93  0.667  0.333  0.461- 129 2.55 128 2.55 105 2.55  94 2.55 117 2.55 104 2.55  69 2.55  81 2.55
                            57 2.55  92 2.55  80 2.55  56 2.55
  94  0.667  0.500  0.461- 129 2.55 130 2.55  93 2.55  95 2.55 118 2.55 106 2.55 105 2.55  70 2.55
                            82 2.55  81 2.55  57 2.55  58 2.55
  95  0.667  0.667  0.461- 130 2.55 131 2.55 106 2.55  94 2.55 119 2.55 107 2.55  71 2.55  82 2.55
                            58 2.55  96 2.55  83 2.55  59 2.55
  96  0.667  0.833  0.461- 132 2.55 131 2.55 108 2.55  91 2.55 120 2.55 107 2.55  72 2.55  84 2.55
                            60 2.55  95 2.55  83 2.55  59 2.55
  97  0.000  0.083  0.434- 134 2.55 116 2.55 121 2.55 133 2.55 115 2.55  86 2.55  98 2.55  85 2.55
                            79 2.55  62 2.55 102 2.55  61 2.55
  98  0.000  0.250  0.434- 122 2.55 134 2.55 135 2.55 117 2.55 116 2.55  99 2.55  97 2.55  87 2.55
                            86 2.55  80 2.55  62 2.55  63 2.55
  99  0.000  0.417  0.434- 135 2.55 117 2.55 123 2.55 136 2.55 118 2.55  87 2.55  98 2.55  88 2.55
                            81 2.55  63 2.55 100 2.55  64 2.55
 100  0.000  0.583  0.434- 137 2.55 119 2.55 124 2.55 136 2.55 118 2.55  89 2.55 101 2.55  88 2.55
                            82 2.55  65 2.55  99 2.55  64 2.55
 101  0.000  0.750  0.434- 125 2.55 137 2.55 138 2.55 120 2.55 119 2.55 102 2.55 100 2.55  90 2.55
                            89 2.55  83 2.55  65 2.55  66 2.55
 102  0.000  0.917  0.434- 138 2.55 120 2.55 126 2.55 133 2.55 115 2.55  90 2.55 101 2.55  85 2.55
                            84 2.55  66 2.55  97 2.55  61 2.55
 103  0.500  0.083  0.434- 140 2.55 110 2.55 127 2.55 139 2.55 109 2.55  92 2.55 104 2.55  91 2.55
                            73 2.55  68 2.55 108 2.55  67 2.55
 104  0.500  0.250  0.434- 128 2.55 140 2.55 141 2.55 111 2.55 110 2.55 105 2.55 103 2.55  93 2.55
                            92 2.55  74 2.55  68 2.55  69 2.55
 105  0.500  0.417  0.434- 141 2.55 111 2.55 129 2.55 142 2.55 112 2.55  93 2.55 104 2.55  94 2.55
                            75 2.55  69 2.55 106 2.55  70 2.55
 106  0.500  0.583  0.434- 143 2.55 113 2.55 130 2.55 142 2.55 112 2.55  95 2.55 107 2.55  94 2.55
                            76 2.55  71 2.55 105 2.55  70 2.55
 107  0.500  0.750  0.434- 131 2.55 143 2.55 144 2.55 114 2.55 113 2.55 108 2.55 106 2.55  96 2.55
                            95 2.55  77 2.55  71 2.55  72 2.55
 108  0.500  0.917  0.434- 144 2.55 114 2.55 132 2.55 139 2.55 109 2.55  96 2.55 107 2.55  91 2.55
                            78 2.55  72 2.55 103 2.55  67 2.55
 109  0.333  0.000  0.408-  73 2.55  78 2.55 103 2.55 108 2.55 110 2.55 114 2.55  85 2.55 139 2.55
                           126 2.55 121 2.55
 110  0.333  0.167  0.408-  73 2.55 103 2.55  74 2.55 104 2.55 109 2.55  86 2.55 140 2.55 121 2.55
                           111 2.55 122 2.55
 111  0.333  0.333  0.408-  75 2.55 105 2.55  74 2.55 104 2.55 112 2.55  87 2.55 141 2.55 123 2.55
                           110 2.55 122 2.55
 112  0.333  0.500  0.408-  75 2.55  76 2.55 105 2.55 106 2.55 111 2.55 113 2.55  88 2.55 142 2.55
                           124 2.55 123 2.55
 113  0.333  0.667  0.408-  76 2.55 106 2.55  77 2.55 107 2.55 112 2.55  89 2.55 143 2.55 124 2.55
                           114 2.55 125 2.55
 114  0.333  0.833  0.408-  78 2.55 108 2.55  77 2.55 107 2.55 109 2.55  90 2.55 144 2.55 126 2.55
                           113 2.55 125 2.55
 115  0.833  0.000  0.408-  79 2.55  84 2.55  97 2.55 102 2.55 116 2.55 120 2.55  91 2.55 133 2.55
                           132 2.55 127 2.55
 116  0.833  0.167  0.408-  79 2.55  97 2.55  80 2.55  98 2.55 115 2.55  92 2.55 134 2.55 127 2.55
                           117 2.55 128 2.55
 117  0.833  0.333  0.408-  81 2.55  99 2.55  80 2.55  98 2.55 118 2.55  93 2.55 135 2.55 129 2.55
                           116 2.55 128 2.55
 118  0.833  0.500  0.408-  81 2.55  82 2.55  99 2.55 100 2.55 117 2.55 119 2.55  94 2.55 136 2.55
                           130 2.55 129 2.55
 119  0.833  0.667  0.408-  82 2.55 100 2.55  83 2.55 101 2.55 118 2.55  95 2.55 137 2.55 130 2.55
                           120 2.55 131 2.55
 120  0.833  0.833  0.408-  84 2.55 102 2.55  83 2.55 101 2.55 115 2.55  96 2.55 138 2.55 132 2.55
                           119 2.55 131 2.55
 121  0.167  0.083  0.382-  86 2.55  97 2.55  85 2.55 134 2.55 122 2.55 133 2.55 110 2.55 126 2.55
                           109 2.55
 122  0.167  0.250  0.382-  98 2.55  87 2.55  86 2.55 121 2.55 123 2.55 134 2.55 135 2.55 110 2.55
                           111 2.55
 123  0.167  0.417  0.382-  87 2.55  99 2.55  88 2.55 135 2.55 122 2.55 136 2.55 111 2.55 124 2.55
                           112 2.55
 124  0.167  0.583  0.382-  89 2.55 100 2.55  88 2.55 137 2.55 125 2.55 136 2.55 113 2.55 123 2.55
                           112 2.55
 125  0.167  0.750  0.382- 101 2.55  90 2.55  89 2.55 124 2.55 126 2.55 137 2.55 138 2.55 113 2.55
                           114 2.55
 126  0.167  0.917  0.382-  90 2.55 102 2.55  85 2.55 138 2.55 125 2.55 133 2.55 114 2.55 121 2.55
                           109 2.55
 127  0.667  0.083  0.382-  92 2.55 103 2.55  91 2.55 140 2.55 128 2.55 139 2.55 116 2.55 132 2.55
                           115 2.55
 128  0.667  0.250  0.382- 104 2.55  93 2.55  92 2.55 127 2.55 129 2.55 140 2.55 141 2.55 116 2.55
                           117 2.55
 129  0.667  0.417  0.382-  93 2.55 105 2.55  94 2.55 141 2.55 128 2.55 142 2.55 117 2.55 130 2.55
                           118 2.55
 130  0.667  0.583  0.382-  95 2.55 106 2.55  94 2.55 143 2.55 131 2.55 142 2.55 119 2.55 129 2.55
                           118 2.55
 131  0.667  0.750  0.382- 107 2.55  96 2.55  95 2.55 130 2.55 132 2.55 143 2.55 144 2.55 119 2.55
                           120 2.55
 132  0.667  0.917  0.382-  96 2.55 108 2.55  91 2.55 144 2.55 131 2.55 139 2.55 120 2.55 127 2.55
                           115 2.55
 133  0.000  0.000  0.356-  97 2.55 102 2.55 134 2.55 138 2.55 121 2.55 126 2.55 115 2.55
 134  0.000  0.167  0.356-  97 2.55  98 2.55 121 2.55 133 2.55 122 2.55 116 2.55 135 2.55
 135  0.000  0.333  0.356-  99 2.55  98 2.55 123 2.55 136 2.55 122 2.55 117 2.55 134 2.55
 136  0.000  0.500  0.356-  99 2.55 100 2.55 135 2.55 137 2.55 123 2.55 124 2.55 118 2.55
 137  0.000  0.667  0.356- 100 2.55 101 2.55 124 2.55 136 2.55 125 2.55 119 2.55 138 2.55
 138  0.000  0.833  0.356- 102 2.55 101 2.55 126 2.55 133 2.55 125 2.55 120 2.55 137 2.55
 139  0.500  0.000  0.356- 103 2.55 108 2.55 140 2.55 144 2.55 127 2.55 132 2.55 109 2.55
 140  0.500  0.167  0.356- 103 2.55 104 2.55 127 2.55 139 2.55 128 2.55 110 2.55 141 2.55
 141  0.500  0.333  0.356- 105 2.55 104 2.55 129 2.55 142 2.55 128 2.55 111 2.55 140 2.55
 142  0.500  0.500  0.356- 105 2.55 106 2.55 141 2.55 143 2.55 129 2.55 130 2.55 112 2.55
 143  0.500  0.667  0.356- 106 2.55 107 2.55 130 2.55 142 2.55 131 2.55 113 2.55 144 2.55
 144  0.500  0.833  0.356- 108 2.55 107 2.55 132 2.55 139 2.55 131 2.55 114 2.55 143 2.55
 
  LATTYP: Found a simple orthorhombic cell.
 ALAT       =    12.5054068306
 B/A-ratio  =     1.2247448714
 C/A-ratio  =     2.2474894410
  
  Lattice vectors:
  
 A1 = (  12.5054068306,   0.0000000000,   0.0000000000)
 A2 = (   0.0000000000,  15.3159328805,   0.0000000000)
 A3 = (   0.0000000000,   0.0000000000,  28.1057698072)


Analysis of symmetry for initial positions (statically):
=====================================================================
 Subroutine PRICEL returns following result:
 
  LATTYP: Found a simple orthorhombic cell.
 ALAT       =     2.5526554801
 B/A-ratio  =     2.4494897428
 C/A-ratio  =    11.0104046654
  
  Lattice vectors:
  
 A1 = (   0.0000000000,  -2.5526554801,   0.0000000000)
 A2 = (   6.2527034153,   0.0000000000,   0.0000000000)
 A3 = (   0.0000000000,   0.0000000000,  28.1057698072)
 
  12 primitive cells build up your supercell.
 

 Routine SETGRP: Setting up the symmetry group for a 
 simple orthorhombic supercell.


 Subroutine GETGRP returns: Found  4 space group operations
 (whereof  2 operations were pure point group operations)
 out of a pool of  8 trial point group operations.


The static configuration has the point symmetry C_1h.
 The point group associated with its full space group is C_2h.


Analysis of symmetry for dynamics (positions and initial velocities):
=====================================================================
 Subroutine PRICEL returns following result:
 
  LATTYP: Found a simple orthorhombic cell.
 ALAT       =     2.5526554801
 B/A-ratio  =     2.4494897428
 C/A-ratio  =    11.0104046654
  
  Lattice vectors:
  
 A1 = (   0.0000000000,  -2.5526554801,   0.0000000000)
 A2 = (   6.2527034153,   0.0000000000,   0.0000000000)
 A3 = (   0.0000000000,   0.0000000000,  28.1057698072)
 
  12 primitive cells build up your supercell.
 

 Routine SETGRP: Setting up the symmetry group for a 
 simple orthorhombic supercell.


 Subroutine GETGRP returns: Found  4 space group operations
 (whereof  2 operations were pure point group operations)
 out of a pool of  8 trial point group operations.


The dynamic configuration has the point symmetry C_1h.
 The point group associated with its full space group is C_2h.


Analysis of constrained symmetry for selective dynamics:
=====================================================================
 Subroutine PRICEL returns following result:
 
  LATTYP: Found a simple orthorhombic cell.
 ALAT       =     2.5526554801
 B/A-ratio  =     2.4494897428
 C/A-ratio  =    11.0104046654
  
  Lattice vectors:
  
 A1 = (   0.0000000000,  -2.5526554801,   0.0000000000)
 A2 = (   6.2527034153,   0.0000000000,   0.0000000000)
 A3 = (   0.0000000000,   0.0000000000,  28.1057698072)
 
  12 primitive cells build up your supercell.
 

 Routine SETGRP: Setting up the symmetry group for a 
 simple orthorhombic supercell.


 Subroutine GETGRP returns: Found  2 space group operations
 (whereof  2 operations were pure point group operations)
 out of a pool of  8 trial point group operations.


The constrained configuration has the point symmetry C_1h.


 Subroutine INISYM returns: Found  2 space group operations
 (whereof  2 operations are pure point group operations),
 and found    12 'primitive' translations


----------------------------------------------------------------------------------------

                                     Primitive cell                                     

  volume of cell :     448.5961

  direct lattice vectors                    reciprocal lattice vectors
     0.000000000 -2.552655480  0.000000000     0.000000000 -0.391748909  0.000000000
     6.252703415  0.000000000  0.000000000     0.159930822  0.000000000  0.000000000
     0.000000000  0.000000000 28.105769807     0.000000000  0.000000000  0.035579883

  length of vectors
     2.552655480  6.252703415 28.105769807     0.391748909  0.159930822  0.035579883

  position of ions in fractional coordinates (direct lattice)
     0.500000000  0.666666667  0.644201170
     1.000000000  0.333333333  0.617982776
     0.500000000  0.000000000  0.591764381
     1.000000000  0.666666667  0.565545987
     0.500000000  0.333333333  0.539327592
     1.000000000  0.000000000  0.513109197
     0.500000000  0.666666667  0.486890803
     1.000000000  0.333333333  0.460672408
     0.500000000  0.000000000  0.434454013
     1.000000000  0.666666667  0.408235619
     0.500000000  0.333333333  0.382017224
     1.000000000  0.000000000  0.355798830

  ion indices of the primitive-cell ions
   primitive index   ion index
                 1           1
                 2          14
                 3          31
                 4          38
                 5          49
                 6          68
                 7          73
                 8          86
                 9         103
                10         110
                11         121
                12         140

----------------------------------------------------------------------------------------

 
 
 KPOINTS: KPOINTS created by Atomic Simulation Env

Automatic generation of k-mesh.
 Grid dimensions read from file:
 generate k-points for:    2    2    1

 Generating k-lattice:

  Cartesian coordinates                     Fractional coordinates (reciprocal lattice)
     0.039982706  0.000000000  0.000000000     0.500000000  0.000000000  0.000000000
     0.000000000  0.032645742  0.000000000     0.000000000  0.500000000  0.000000000
     0.000000000  0.000000000  0.035579883     0.000000000  0.000000000  1.000000000

  Length of vectors
     0.039982706  0.032645742  0.035579883

  Shift w.r.t. Gamma in fractional coordinates (k-lattice)
     0.500000000  0.500000000  0.000000000

 
 Subroutine IBZKPT returns following result:
 ===========================================
 
 Found      1 irreducible k-points:
 
 Following reciprocal coordinates:
            Coordinates               Weight
  0.250000  0.250000  0.000000      4.000000
 
 Following cartesian coordinates:
            Coordinates               Weight
  0.019991  0.016323  0.000000      4.000000
 


--------------------------------------------------------------------------------------------------------




 Dimension of arrays:
   k-points           NKPTS =      1   k-points in BZ     NKDIM =      1   number of bands    NBANDS=    960
   number of dos      NEDOS =    301   number of ions     NIONS =    144
   non local maximal  LDIM  =      6   non local SUM 2l+1 LMDIM =     18
   total plane-waves  NPLWV = 940800
   max r-space proj   IRMAX =   2613   max aug-charges    IRDMAX=   5261
   dimension x,y,z NGX =    70 NGY =   84 NGZ =  160
   dimension x,y,z NGXF=   140 NGYF=  168 NGZF=  320
   support grid    NGXF=   140 NGYF=  168 NGZF=  320
   ions per type =             144
   NGX,Y,Z   is equivalent  to a cutoff of   9.31,  9.12,  9.46 a.u.
   NGXF,Y,Z  is equivalent  to a cutoff of  18.61, 18.24, 18.93 a.u.

 SYSTEM =  unknown system                          
 POSCAR =  Cu                                      

 Startparameter for this run:
   NWRITE =      2    write-flag & timer
   PREC   = normal    normal or accurate (medium, high low for compatibility)
   ISTART =      0    job   : 0-new  1-cont  2-samecut
   ICHARG =      2    charge: 1-file 2-atom 10-const
   ISPIN  =      1    spin polarized calculation?
   LNONCOLLINEAR =      F non collinear calculations
   LSORBIT =      F    spin-orbit coupling
   INIWAV =      1    electr: 0-lowe 1-rand  2-diag
   LASPH  =      F    aspherical Exc in radial PAW
 Electronic Relaxation 1
   ENCUT  =  500.0 eV  36.75 Ry    6.06 a.u.  22.80 27.92 51.24*2*pi/ulx,y,z
   ENINI  =  500.0     initial cutoff
   ENAUG  =  587.0 eV  augmentation charge cutoff
   NELM   =    200;   NELMIN=  2; NELMDL=  0     # of ELM steps 
   EDIFF  = 0.1E-04   stopping-criterion for ELM
   LREAL  =      T    real-space projection
   NLSPLINE    = F    spline interpolate recip. space projectors
   LCOMPAT=      F    compatible to vasp.4.4
   GGA_COMPAT  = T    GGA compatible to vasp.4.4-vasp.4.6
   LMAXPAW     = -100 max onsite density
   LMAXMIX     =    2 max onsite mixed and CHGCAR
   VOSKOWN=      0    Vosko Wilk Nusair interpolation
   ROPT   =   -0.00050
 Ionic relaxation
   EDIFFG = -.2E-01   stopping-criterion for IOM
   NSW    =    500    number of steps for IOM
   NBLOCK =      1;   KBLOCK =    500    inner block; outer block 
   IBRION =      2    ionic relax: 0-MD 1-quasi-New 2-CG
   NFREE  =      1    steps in history (QN), initial steepest desc. (CG)
   ISIF   =      2    stress and relaxation
   IWAVPR =     11    prediction:  0-non 1-charg 2-wave 3-comb
   ISYM   =      2    0-nonsym 1-usesym 2-fastsym
   LCORR  =      T    Harris-Foulkes like correction to forces

   POTIM  = 0.5000    time-step for ionic-motion
   TEIN   =    0.0    initial temperature
   TEBEG  =    0.0;   TEEND  =   0.0 temperature during run
   SMASS  =  -3.00    Nose mass-parameter (am)
   estimated Nose-frequenzy (Omega)   =  0.10E-29 period in steps = 0.13E+47 mass=  -0.357E-26a.u.
   SCALEE = 1.0000    scale energy and forces
   NPACO  =    256;   APACO  = 10.0  distance and # of slots for P.C.
   PSTRESS=    0.0 pullay stress

  Mass of Ions in am
   POMASS =  63.55
  Ionic Valenz
   ZVAL   =  11.00
  Atomic Wigner-Seitz radii
   RWIGS  =  -1.00
  virtual crystal weights 
   VCA    =   1.00
   NELECT =    1584.0000    total number of electrons
   NUPDOWN=      -1.0000    fix difference up-down

 DOS related values:
   EMIN   =  10.00;   EMAX   =-10.00  energy-range for DOS
   EFERMI =   0.00
   ISMEAR =     0;   SIGMA  =   0.01  broadening in eV -4-tet -1-fermi 0-gaus

 Electronic relaxation 2 (details)
   IALGO  =     58    algorithm
   LDIAG  =      T    sub-space diagonalisation (order eigenvalues)
   LSUBROT=      F    optimize rotation matrix (better conditioning)
   TURBO    =      0    0=normal 1=particle mesh
   IRESTART =      0    0=no restart 2=restart with 2 vectors
   NREBOOT  =      0    no. of reboots
   NMIN     =      0    reboot dimension
   EREF     =   0.00    reference energy to select bands
   IMIX   =      4    mixing-type and parameters
     AMIX     =   0.40;   BMIX     =  1.00
     AMIX_MAG =   1.60;   BMIX_MAG =  1.00
     AMIN     =   0.10
     WC   =   100.;   INIMIX=   1;  MIXPRE=   1;  MAXMIX= -45

 Intra band minimization:
   WEIMIN = 0.0010     energy-eigenvalue tresh-hold
   EBREAK =  0.26E-08  absolut break condition
   DEPER  =   0.30     relativ break condition  

   TIME   =   0.40     timestep for ELM

  volume/ion in A,a.u.               =      37.38       252.27
  Fermi-wavevector in a.u.,A,eV,Ry     =   1.088882  2.057689 16.131949  1.185665
  Thomas-Fermi vector in A             =   2.225074
 
 Write flags
   LWAVE        =      F    write WAVECAR
   LDOWNSAMPLE  =      F    k-point downsampling of WAVECAR
   LCHARG       =      F    write CHGCAR
   LVTOT        =      F    write LOCPOT, total local potential
   LVHAR        =      F    write LOCPOT, Hartree potential only
   LELF         =      F    write electronic localiz. function (ELF)
   LORBIT       =      0    0 simple, 1 ext, 2 COOP (PROOUT), +10 PAW based schemes


 Dipole corrections
   LMONO  =      F    monopole corrections only (constant potential shift)
   LDIPOL =      T    correct potential (dipole corrections)
   IDIPOL =      3    1-x, 2-y, 3-z, 4-all directions 
   EPSILON=  1.0000000 bulk dielectric constant

 Exchange correlation treatment:
   GGA     =    BF    GGA type
   LEXCH   =    17    internal setting for exchange type
   LIBXC   =     F    Libxc                    
   VOSKOWN =     0    Vosko Wilk Nusair interpolation
   LHFCALC =     F    Hartree Fock is set to
   LHFONE  =     F    Hartree Fock one center treatment
   AEXX    =    0.0000 exact exchange contribution

 vdW DFT:
   LUSE_VDW   =     T    switch on vdW DFT
   Zab_VDW    =******    correlation parameter
   PARAM1     =0.1234
   PARAM2     =1.0000
   PARAM3     =0.0000
   -- rVV10 --
   BPARAM     = 6.3000
   CPARAM     = 0.0093

 Linear response parameters
   LEPSILON=     F    determine dielectric tensor
   LRPA    =     F    only Hartree local field effects (RPA)
   LNABLA  =     F    use nabla operator in PAW spheres
   LVEL    =     F    velocity operator in full k-point grid
   CSHIFT  =0.1000    complex shift for real part using Kramers Kronig
   OMEGAMAX=  -1.0    maximum frequency
   DEG_THRESHOLD= 0.2000000E-02 threshold for treating states as degnerate
   RTIME   =   -0.100 relaxation time in fs
  (WPLASMAI=    0.000 imaginary part of plasma frequency in eV, 0.658/RTIME)
   DFIELD  = 0.0000000 0.0000000 0.0000000 field for delta impulse in time
 
  Optional k-point grid parameters
   LKPOINTS_OPT  =     F    use optional k-point grid
   KPOINTS_OPT_MODE=     1    mode for optional k-point grid
 
 Orbital magnetization related:
   ORBITALMAG=     F  switch on orbital magnetization
   LCHIMAG   =     F  perturbation theory with respect to B field
   DQ        =  0.001000  dq finite difference perturbation B field
   LLRAUG    =     F  two centre corrections for induced B field



--------------------------------------------------------------------------------------------------------


 conjugate gradient relaxation of ions
   using selective dynamics as specified on POSCAR
   WARNING: If single coordinates had been selected the selection of coordinates
            is made according to the corresponding   d i r e c t   coordinates!
            Don't support selection of single cartesian coordinates -- sorry ...
  !
 charge density and potential will be updated during run
 non-spin polarized calculation
 Conjugate gradient for all bands (Freysoldt, et al. PRB 79, 241103 (2009))
 preconditioned conjugated gradient                                        
 perform sub-space diagonalisation
    before iterative eigenvector-optimisation
 modified Broyden-mixing scheme, WC =      100.0
 initial mixing is a Kerker type mixing with AMIX =  0.4000 and BMIX =      1.0000
 Hartree-type preconditioning will be used
 using additional bands          168
 real space projection scheme for non local part
 use partial core corrections
 no Harris-corrections to forces 
 use gradient corrections 
 use of overlap-Matrix (Vanderbilt PP)
 Gauss-broadening in eV      SIGMA  =   0.01


--------------------------------------------------------------------------------------------------------


  energy-cutoff  :      500.00
  volume of cell :     5383.15
      direct lattice vectors                 reciprocal lattice vectors
    12.505406831  0.000000000  0.000000000     0.079965411  0.000000000  0.000000000
     0.000000000 15.315932881  0.000000000     0.000000000  0.065291485  0.000000000
     0.000000000  0.000000000 28.105769807     0.000000000  0.000000000  0.035579883

  length of vectors
    12.505406831 15.315932881 28.105769807     0.079965411  0.065291485  0.035579883


 
 k-points in units of 2pi/SCALE and weight: KPOINTS created by Atomic Simulation Env
   0.01999135  0.01632287  0.00000000       1.000
 
 k-points in reciprocal lattice and weights: KPOINTS created by Atomic Simulation Env
   0.25000000  0.25000000  0.00000000       1.000
 
 position of ions in fractional coordinates (direct lattice) 
   0.33333333  0.08333333  0.64420117
   0.33333333  0.25000000  0.64420117
   0.33333333  0.41666667  0.64420117
   0.33333333  0.58333333  0.64420117
   0.33333333  0.75000000  0.64420117
   0.33333333  0.91666667  0.64420117
   0.83333333  0.08333333  0.64420117
   0.83333333  0.25000000  0.64420117
   0.83333333  0.41666667  0.64420117
   0.83333333  0.58333333  0.64420117
   0.83333333  0.75000000  0.64420117
   0.83333333  0.91666667  0.64420117
   0.16666667  0.00000000  0.61798278
   0.16666667  0.16666667  0.61798278
   0.16666667  0.33333333  0.61798278
   0.16666667  0.50000000  0.61798278
   0.16666667  0.66666667  0.61798278
   0.16666667  0.83333333  0.61798278
   0.66666667  0.00000000  0.61798278
   0.66666667  0.16666667  0.61798278
   0.66666667  0.33333333  0.61798278
   0.66666667  0.50000000  0.61798278
   0.66666667  0.66666667  0.61798278
   0.66666667  0.83333333  0.61798278
   0.00000000  0.08333333  0.59176438
   0.00000000  0.25000000  0.59176438
   0.00000000  0.41666667  0.59176438
   0.00000000  0.58333333  0.59176438
   0.00000000  0.75000000  0.59176438
   0.00000000  0.91666667  0.59176438
   0.50000000  0.08333333  0.59176438
   0.50000000  0.25000000  0.59176438
   0.50000000  0.41666667  0.59176438
   0.50000000  0.58333333  0.59176438
   0.50000000  0.75000000  0.59176438
   0.50000000  0.91666667  0.59176438
   0.33333333  0.00000000  0.56554599
   0.33333333  0.16666667  0.56554599
   0.33333333  0.33333333  0.56554599
   0.33333333  0.50000000  0.56554599
   0.33333333  0.66666667  0.56554599
   0.33333333  0.83333333  0.56554599
   0.83333333  0.00000000  0.56554599
   0.83333333  0.16666667  0.56554599
   0.83333333  0.33333333  0.56554599
   0.83333333  0.50000000  0.56554599
   0.83333333  0.66666667  0.56554599
   0.83333333  0.83333333  0.56554599
   0.16666667  0.08333333  0.53932759
   0.16666667  0.25000000  0.53932759
   0.16666667  0.41666667  0.53932759
   0.16666667  0.58333333  0.53932759
   0.16666667  0.75000000  0.53932759
   0.16666667  0.91666667  0.53932759
   0.66666667  0.08333333  0.53932759
   0.66666667  0.25000000  0.53932759
   0.66666667  0.41666667  0.53932759
   0.66666667  0.58333333  0.53932759
   0.66666667  0.75000000  0.53932759
   0.66666667  0.91666667  0.53932759
   0.00000000  0.00000000  0.51310920
   0.00000000  0.16666667  0.51310920
   0.00000000  0.33333333  0.51310920
   0.00000000  0.50000000  0.51310920
   0.00000000  0.66666667  0.51310920
   0.00000000  0.83333333  0.51310920
   0.50000000  0.00000000  0.51310920
   0.50000000  0.16666667  0.51310920
   0.50000000  0.33333333  0.51310920
   0.50000000  0.50000000  0.51310920
   0.50000000  0.66666667  0.51310920
   0.50000000  0.83333333  0.51310920
   0.33333333  0.08333333  0.48689080
   0.33333333  0.25000000  0.48689080
   0.33333333  0.41666667  0.48689080
   0.33333333  0.58333333  0.48689080
   0.33333333  0.75000000  0.48689080
   0.33333333  0.91666667  0.48689080
   0.83333333  0.08333333  0.48689080
   0.83333333  0.25000000  0.48689080
   0.83333333  0.41666667  0.48689080
   0.83333333  0.58333333  0.48689080
   0.83333333  0.75000000  0.48689080
   0.83333333  0.91666667  0.48689080
   0.16666667  0.00000000  0.46067241
   0.16666667  0.16666667  0.46067241
   0.16666667  0.33333333  0.46067241
   0.16666667  0.50000000  0.46067241
   0.16666667  0.66666667  0.46067241
   0.16666667  0.83333333  0.46067241
   0.66666667  0.00000000  0.46067241
   0.66666667  0.16666667  0.46067241
   0.66666667  0.33333333  0.46067241
   0.66666667  0.50000000  0.46067241
   0.66666667  0.66666667  0.46067241
   0.66666667  0.83333333  0.46067241
   0.00000000  0.08333333  0.43445401
   0.00000000  0.25000000  0.43445401
   0.00000000  0.41666667  0.43445401
   0.00000000  0.58333333  0.43445401
   0.00000000  0.75000000  0.43445401
   0.00000000  0.91666667  0.43445401
   0.50000000  0.08333333  0.43445401
   0.50000000  0.25000000  0.43445401
   0.50000000  0.41666667  0.43445401
   0.50000000  0.58333333  0.43445401
   0.50000000  0.75000000  0.43445401
   0.50000000  0.91666667  0.43445401
   0.33333333  0.00000000  0.40823562
   0.33333333  0.16666667  0.40823562
   0.33333333  0.33333333  0.40823562
   0.33333333  0.50000000  0.40823562
   0.33333333  0.66666667  0.40823562
   0.33333333  0.83333333  0.40823562
   0.83333333  0.00000000  0.40823562
   0.83333333  0.16666667  0.40823562
   0.83333333  0.33333333  0.40823562
   0.83333333  0.50000000  0.40823562
   0.83333333  0.66666667  0.40823562
   0.83333333  0.83333333  0.40823562
   0.16666667  0.08333333  0.38201722
   0.16666667  0.25000000  0.38201722
   0.16666667  0.41666667  0.38201722
   0.16666667  0.58333333  0.38201722
   0.16666667  0.75000000  0.38201722
   0.16666667  0.91666667  0.38201722
   0.66666667  0.08333333  0.38201722
   0.66666667  0.25000000  0.38201722
   0.66666667  0.41666667  0.38201722
   0.66666667  0.58333333  0.38201722
   0.66666667  0.75000000  0.38201722
   0.66666667  0.91666667  0.38201722
   0.00000000  0.00000000  0.35579883
   0.00000000  0.16666667  0.35579883
   0.00000000  0.33333333  0.35579883
   0.00000000  0.50000000  0.35579883
   0.00000000  0.66666667  0.35579883
   0.00000000  0.83333333  0.35579883
   0.50000000  0.00000000  0.35579883
   0.50000000  0.16666667  0.35579883
   0.50000000  0.33333333  0.35579883
   0.50000000  0.50000000  0.35579883
   0.50000000  0.66666667  0.35579883
   0.50000000  0.83333333  0.35579883
 
 position of ions in cartesian coordinates  (Angst):
   4.16846894  1.27632774 18.10576981
   4.16846894  3.82898322 18.10576981
   4.16846894  6.38163870 18.10576981
   4.16846894  8.93429418 18.10576981
   4.16846894 11.48694966 18.10576981
   4.16846894 14.03960514 18.10576981
  10.42117236  1.27632774 18.10576981
  10.42117236  3.82898322 18.10576981
  10.42117236  6.38163870 18.10576981
  10.42117236  8.93429418 18.10576981
  10.42117236 11.48694966 18.10576981
  10.42117236 14.03960514 18.10576981
   2.08423447  0.00000000 17.36888164
   2.08423447  2.55265548 17.36888164
   2.08423447  5.10531096 17.36888164
   2.08423447  7.65796644 17.36888164
   2.08423447 10.21062192 17.36888164
   2.08423447 12.76327740 17.36888164
   8.33693789  0.00000000 17.36888164
   8.33693789  2.55265548 17.36888164
   8.33693789  5.10531096 17.36888164
   8.33693789  7.65796644 17.36888164
   8.33693789 10.21062192 17.36888164
   8.33693789 12.76327740 17.36888164
   0.00000000  1.27632774 16.63199348
   0.00000000  3.82898322 16.63199348
   0.00000000  6.38163870 16.63199348
   0.00000000  8.93429418 16.63199348
   0.00000000 11.48694966 16.63199348
   0.00000000 14.03960514 16.63199348
   6.25270342  1.27632774 16.63199348
   6.25270342  3.82898322 16.63199348
   6.25270342  6.38163870 16.63199348
   6.25270342  8.93429418 16.63199348
   6.25270342 11.48694966 16.63199348
   6.25270342 14.03960514 16.63199348
   4.16846894  0.00000000 15.89510531
   4.16846894  2.55265548 15.89510531
   4.16846894  5.10531096 15.89510531
   4.16846894  7.65796644 15.89510531
   4.16846894 10.21062192 15.89510531
   4.16846894 12.76327740 15.89510531
  10.42117236  0.00000000 15.89510531
  10.42117236  2.55265548 15.89510531
  10.42117236  5.10531096 15.89510531
  10.42117236  7.65796644 15.89510531
  10.42117236 10.21062192 15.89510531
  10.42117236 12.76327740 15.89510531
   2.08423447  1.27632774 15.15821715
   2.08423447  3.82898322 15.15821715
   2.08423447  6.38163870 15.15821715
   2.08423447  8.93429418 15.15821715
   2.08423447 11.48694966 15.15821715
   2.08423447 14.03960514 15.15821715
   8.33693789  1.27632774 15.15821715
   8.33693789  3.82898322 15.15821715
   8.33693789  6.38163870 15.15821715
   8.33693789  8.93429418 15.15821715
   8.33693789 11.48694966 15.15821715
   8.33693789 14.03960514 15.15821715
   0.00000000  0.00000000 14.42132899
   0.00000000  2.55265548 14.42132899
   0.00000000  5.10531096 14.42132899
   0.00000000  7.65796644 14.42132899
   0.00000000 10.21062192 14.42132899
   0.00000000 12.76327740 14.42132899
   6.25270342  0.00000000 14.42132899
   6.25270342  2.55265548 14.42132899
   6.25270342  5.10531096 14.42132899
   6.25270342  7.65796644 14.42132899
   6.25270342 10.21062192 14.42132899
   6.25270342 12.76327740 14.42132899
   4.16846894  1.27632774 13.68444082
   4.16846894  3.82898322 13.68444082
   4.16846894  6.38163870 13.68444082
   4.16846894  8.93429418 13.68444082
   4.16846894 11.48694966 13.68444082
   4.16846894 14.03960514 13.68444082
  10.42117236  1.27632774 13.68444082
  10.42117236  3.82898322 13.68444082
  10.42117236  6.38163870 13.68444082
  10.42117236  8.93429418 13.68444082
  10.42117236 11.48694966 13.68444082
  10.42117236 14.03960514 13.68444082
   2.08423447  0.00000000 12.94755266
   2.08423447  2.55265548 12.94755266
   2.08423447  5.10531096 12.94755266
   2.08423447  7.65796644 12.94755266
   2.08423447 10.21062192 12.94755266
   2.08423447 12.76327740 12.94755266
   8.33693789  0.00000000 12.94755266
   8.33693789  2.55265548 12.94755266
   8.33693789  5.10531096 12.94755266
   8.33693789  7.65796644 12.94755266
   8.33693789 10.21062192 12.94755266
   8.33693789 12.76327740 12.94755266
   0.00000000  1.27632774 12.21066449
   0.00000000  3.82898322 12.21066449
   0.00000000  6.38163870 12.21066449
   0.00000000  8.93429418 12.21066449
   0.00000000 11.48694966 12.21066449
   0.00000000 14.03960514 12.21066449
   6.25270342  1.27632774 12.21066449
   6.25270342  3.82898322 12.21066449
   6.25270342  6.38163870 12.21066449
   6.25270342  8.93429418 12.21066449
   6.25270342 11.48694966 12.21066449
   6.25270342 14.03960514 12.21066449
   4.16846894  0.00000000 11.47377633
   4.16846894  2.55265548 11.47377633
   4.16846894  5.10531096 11.47377633
   4.16846894  7.65796644 11.47377633
   4.16846894 10.21062192 11.47377633
   4.16846894 12.76327740 11.47377633
  10.42117236  0.00000000 11.47377633
  10.42117236  2.55265548 11.47377633
  10.42117236  5.10531096 11.47377633
  10.42117236  7.65796644 11.47377633
  10.42117236 10.21062192 11.47377633
  10.42117236 12.76327740 11.47377633
   2.08423447  1.27632774 10.73688816
   2.08423447  3.82898322 10.73688816
   2.08423447  6.38163870 10.73688816
   2.08423447  8.93429418 10.73688816
   2.08423447 11.48694966 10.73688816
   2.08423447 14.03960514 10.73688816
   8.33693789  1.27632774 10.73688816
   8.33693789  3.82898322 10.73688816
   8.33693789  6.38163870 10.73688816
   8.33693789  8.93429418 10.73688816
   8.33693789 11.48694966 10.73688816
   8.33693789 14.03960514 10.73688816
   0.00000000  0.00000000 10.00000000
   0.00000000  2.55265548 10.00000000
   0.00000000  5.10531096 10.00000000
   0.00000000  7.65796644 10.00000000
   0.00000000 10.21062192 10.00000000
   0.00000000 12.76327740 10.00000000
   6.25270342  0.00000000 10.00000000
   6.25270342  2.55265548 10.00000000
   6.25270342  5.10531096 10.00000000
   6.25270342  7.65796644 10.00000000
   6.25270342 10.21062192 10.00000000
   6.25270342 12.76327740 10.00000000
 


--------------------------------------------------------------------------------------------------------


 k-point   1 :   0.2500 0.2500 0.0000  plane waves:  136651

 maximum and minimum number of plane-waves per node :     17082    17080

 maximum number of plane-waves:    136651
 maximum index in each direction: 
   IXMAX=   22   IYMAX=   27   IZMAX=   51
   IXMIN=  -23   IYMIN=  -28   IZMIN=  -51


 real space projection operators:
  total allocation   :      50375.25 KBytes
  max/ min on nodes  :       6569.44       5695.31


 parallel 3D FFT for wavefunctions:
    minimum data exchange during FFTs selected (reduces bandwidth)
 parallel 3D FFT for charge:
    minimum data exchange during FFTs selected (reduces bandwidth)


 total amount of memory used by VASP MPI-rank0    82598. kBytes
=======================================================================

   base      :      30000. kBytes
   nonlr-proj:      14332. kBytes
   fftplans  :       5433. kBytes
   grid      :       7441. kBytes
   one-center:        279. kBytes
   wavefun   :      25113. kBytes
 
     INWAV:  cpu time      0.0007: real time      0.0008
 Broyden mixing: mesh for mixing (old mesh)
   NGX = 45   NGY = 55   NGZ =103
  (NGX  =140   NGY  =168   NGZ  =320)
  gives a total of 254925 points

 initial charge density was supplied:
 charge density of overlapping atoms calculated
 number of electron    1584.0000000 magnetization 
 charge density for first step will be calculated from the start-wavefunctions


--------------------------------------------------------------------------------------------------------


 Maximum index for non-local projection operator          354
 Maximum index for augmentation-charges          354 (set IRDMAX)


--------------------------------------------------------------------------------------------------------


 First call to EWALD:  gamma=   0.101
 Maximum number of real-space cells 4x 3x 2
 Maximum number of reciprocal cells 2x 2x 4

    FEWALD:  cpu time      0.0153: real time      0.0153


--------------------------------------- Iteration      1(   1)  ---------------------------------------


vdW kernel read from vdw_kernel.bindat
  0.0000  0.2424  0.5071  0.7962  1.1119  1.4567  1.8333  2.2446  2.6937  3.1842
  3.7199  4.3049  4.9438  5.6415  6.4036  7.2358  8.1446  9.1372 10.2212 11.4050
 12.6979 14.1099 15.6519 17.3360 19.1751 21.1837 23.3773 25.7729 28.3892 31.2465
 34.3669 37.7748 41.4965 45.5611 50.0000
 
    POTLOK:  cpu time      2.7103: real time      2.7266
    SETDIJ:  cpu time      0.0295: real time      0.0296
    TRIAL :  cpu time     10.7977: real time     10.8475
    CORREC:  cpu time      0.0032: real time      0.0032
    --------------------------------------------
      LOOP:  cpu time     13.5514: real time     13.6864

 eigenvalue-minimisations  :  1920
 total energy-change (2. order) : 0.1495723E+05  (-0.6854674E+05)
 number of electron    1584.0000000 magnetization 
 augmentation part     1584.0000000 magnetization 

 DIPCOR: dipole corrections for dipol
 direction  3 min pos     1,
 dipolmoment           0.000000      0.000000      0.000000 electrons x Angstroem
 Tr[quadrupol]    -53140.589328

 energy correction for charged system         0.000000 eV
 dipol+quadrupol energy correction           -0.000000 eV
 added-field ion interaction         -0.000000 eV  (added to PSCEN)


 Free energy of the ion-electron system (eV)
  ---------------------------------------------------
  alpha Z        PSCENC =      2817.08819146
  Ewald energy   TEWEN  =   1153788.79185580
  -Hartree energ DENC   =  -1344567.63768128
  -exchange      EXHF   =         0.00000000
  -V(xc)+E(xc)   XCENC  =      6631.26167329
  PAW double counting   =    176898.21478072  -192031.45748756
  entropy T*S    EENTRO =        -0.00000646
  eigenvalues    EBANDS =      9493.14456660
  atomic energy  EATOM  =    201927.82263697
  ---------------------------------------------------
  free energy    TOTEN  =     14957.22852954 eV

  energy without entropy =    14957.22853600  energy(sigma->0) =    14957.22853277


--------------------------------------------------------------------------------------------------------




--------------------------------------- Iteration      1(   2)  ---------------------------------------


    TRIAL :  cpu time      8.7759: real time      8.7815
    CORREC:  cpu time      0.0026: real time      0.0026
    --------------------------------------------
      LOOP:  cpu time      8.7807: real time      8.7864

 eigenvalue-minimisations  :  1920
 total energy-change (2. order) :-0.1308422E+05  (-0.1262494E+05)
 number of electron    1584.0000000 magnetization 
 augmentation part     1584.0000000 magnetization 

 DIPCOR: dipole corrections for dipol
 direction  3 min pos     1,
 dipolmoment           0.000000      0.000000      0.000000 electrons x Angstroem
 Tr[quadrupol]    -53140.589328

 energy correction for charged system         0.000000 eV
 dipol+quadrupol energy correction           -0.000000 eV
 added-field ion interaction         -0.000000 eV  (added to PSCEN)


 Free energy of the ion-electron system (eV)
  ---------------------------------------------------
  alpha Z        PSCENC =      2817.08819146
  Ewald energy   TEWEN  =   1153788.79185580
  -Hartree energ DENC   =  -1344567.63768128
  -exchange      EXHF   =         0.00000000
  -V(xc)+E(xc)   XCENC  =      6631.26167329
  PAW double counting   =    176898.21478072  -192031.45748756
  entropy T*S    EENTRO =        -0.00026629
  eigenvalues    EBANDS =     -3591.07837164
  atomic energy  EATOM  =    201927.82263697
  ---------------------------------------------------
  free energy    TOTEN  =      1873.00533147 eV

  energy without entropy =     1873.00559776  energy(sigma->0) =     1873.00546461


--------------------------------------------------------------------------------------------------------




--------------------------------------- Iteration      1(   3)  ---------------------------------------


    TRIAL :  cpu time      8.4998: real time      8.5058
    CORREC:  cpu time      0.0015: real time      0.0015
    --------------------------------------------
      LOOP:  cpu time      8.5029: real time      8.5090

 eigenvalue-minimisations  :  1920
 total energy-change (2. order) :-0.1865393E+04  (-0.1738929E+04)
 number of electron    1584.0000000 magnetization 
 augmentation part     1584.0000000 magnetization 

 DIPCOR: dipole corrections for dipol
 direction  3 min pos     1,
 dipolmoment           0.000000      0.000000      0.000000 electrons x Angstroem
 Tr[quadrupol]    -53140.589328

 energy correction for charged system         0.000000 eV
 dipol+quadrupol energy correction           -0.000000 eV
 added-field ion interaction         -0.000000 eV  (added to PSCEN)


 Free energy of the ion-electron system (eV)
  ---------------------------------------------------
  alpha Z        PSCENC =      2817.08819146
  Ewald energy   TEWEN  =   1153788.79185580
  -Hartree energ DENC   =  -1344567.63768128
  -exchange      EXHF   =         0.00000000
  -V(xc)+E(xc)   XCENC  =      6631.26167329
  PAW double counting   =    176898.21478072  -192031.45748756
  entropy T*S    EENTRO =        -0.00000000
  eigenvalues    EBANDS =     -5456.47168047
  atomic energy  EATOM  =    201927.82263697
  ---------------------------------------------------
  free energy    TOTEN  =         7.61228893 eV

  energy without entropy =        7.61228893  energy(sigma->0) =        7.61228893


--------------------------------------------------------------------------------------------------------




--------------------------------------- Iteration      1(   4)  ---------------------------------------


    TRIAL :  cpu time      7.9102: real time      7.9189
    CORREC:  cpu time      0.0009: real time      0.0009
    --------------------------------------------
      LOOP:  cpu time      7.9125: real time      7.9212

 eigenvalue-minimisations  :  2112
 total energy-change (2. order) :-0.1122856E+03  (-0.1090873E+03)
 number of electron    1584.0000000 magnetization 
 augmentation part     1584.0000000 magnetization 

 DIPCOR: dipole corrections for dipol
 direction  3 min pos     1,
 dipolmoment           0.000000      0.000000      0.000000 electrons x Angstroem
 Tr[quadrupol]    -53140.589328

 energy correction for charged system         0.000000 eV
 dipol+quadrupol energy correction           -0.000000 eV
 added-field ion interaction         -0.000000 eV  (added to PSCEN)


 Free energy of the ion-electron system (eV)
  ---------------------------------------------------
  alpha Z        PSCENC =      2817.08819146
  Ewald energy   TEWEN  =   1153788.79185580
  -Hartree energ DENC   =  -1344567.63768128
  -exchange      EXHF   =         0.00000000
  -V(xc)+E(xc)   XCENC  =      6631.26167329
  PAW double counting   =    176898.21478072  -192031.45748756
  entropy T*S    EENTRO =        -0.00000000
  eigenvalues    EBANDS =     -5568.75730742
  atomic energy  EATOM  =    201927.82263697
  ---------------------------------------------------
  free energy    TOTEN  =      -104.67333802 eV

  energy without entropy =     -104.67333802  energy(sigma->0) =     -104.67333802


--------------------------------------------------------------------------------------------------------




--------------------------------------- Iteration      1(   5)  ---------------------------------------


    TRIAL :  cpu time      7.9342: real time      7.9402
    CORREC:  cpu time      0.0009: real time      0.0009
    CHARGE:  cpu time      1.0145: real time      1.0151
    --------------------------------------------
      LOOP:  cpu time      8.9514: real time      8.9580

 eigenvalue-minimisations  :  2144
 total energy-change (2. order) :-0.2890006E+01  (-0.2873470E+01)
 number of electron    1584.0005070 magnetization 
 augmentation part      975.8309343 magnetization 

 DIPCOR: dipole corrections for dipol
 direction  3 min pos     1,
 dipolmoment           0.000000      0.000000      0.000000 electrons x Angstroem
 Tr[quadrupol]    -53140.589328

 energy correction for charged system         0.000000 eV
 dipol+quadrupol energy correction           -0.000000 eV
 added-field ion interaction         -0.000000 eV  (added to PSCEN)


 Free energy of the ion-electron system (eV)
  ---------------------------------------------------
  alpha Z        PSCENC =      2817.08819146
  Ewald energy   TEWEN  =   1153788.79185580
  -Hartree energ DENC   =  -1344567.63768128
  -exchange      EXHF   =         0.00000000
  -V(xc)+E(xc)   XCENC  =      6631.26167329
  PAW double counting   =    176898.21478072  -192031.45748756
  entropy T*S    EENTRO =        -0.00000000
  eigenvalues    EBANDS =     -5571.64731361
  atomic energy  EATOM  =    201927.82263697
  ---------------------------------------------------
  free energy    TOTEN  =      -107.56334421 eV

  energy without entropy =     -107.56334421  energy(sigma->0) =     -107.56334421


--------------------------------------------------------------------------------------------------------




--------------------------------------- Iteration      1(   6)  ---------------------------------------


    POTLOK:  cpu time      1.5934: real time      1.5946
    SETDIJ:  cpu time      0.0299: real time      0.0299
    TRIAL :  cpu time      5.8695: real time      5.8741
    CORREC:  cpu time      6.6999: real time      6.7041
    CHARGE:  cpu time      0.9947: real time      0.9953
    --------------------------------------------
      LOOP:  cpu time     15.1900: real time     15.2005

 eigenvalue-minimisations  :     0
 total energy-change (2. order) : 0.2058777E+03  (-0.1419527E+03)
 number of electron    1584.0005277 magnetization 
 augmentation part     1014.5709300 magnetization 

 DIPCOR: dipole corrections for dipol
 direction  3 min pos     1,
 dipolmoment           0.000000      0.000000     -0.013571 electrons x Angstroem
 Tr[quadrupol]    -53141.888558

 energy correction for charged system         0.000000 eV
 dipol+quadrupol energy correction           -0.000003 eV
 added-field ion interaction          0.000000 eV  (added to PSCEN)


 Free energy of the ion-electron system (eV)
  ---------------------------------------------------
  alpha Z        PSCENC =      2817.08819144
  Ewald energy   TEWEN  =   1153788.79185580
  -Hartree energ DENC   =  -1343371.97150164
  -exchange      EXHF   =         0.00000000
  -V(xc)+E(xc)   XCENC  =      6310.70851348
  PAW double counting   =    187519.08642643  -201845.00905430
  entropy T*S    EENTRO =        -0.00000000
  eigenvalues    EBANDS =     -7048.20268420
  atomic energy  EATOM  =    201927.82263697
  ---------------------------------------------------
  free energy    TOTEN  =        98.31438398 eV

  energy without entropy =       98.31438398  energy(sigma->0) =       98.31438398


--------------------------------------------------------------------------------------------------------




--------------------------------------- Iteration      1(   7)  ---------------------------------------


    POTLOK:  cpu time      1.5890: real time      1.5902
    SETDIJ:  cpu time      0.0305: real time      0.0305
    TRIAL :  cpu time      5.8180: real time      5.8215
    CORREC:  cpu time      6.5142: real time      6.5189
    CHARGE:  cpu time      1.0014: real time      1.0020
    --------------------------------------------
      LOOP:  cpu time     14.9558: real time     14.9656

 eigenvalue-minimisations  :     0
 total energy-change (2. order) :-0.1334092E+03  (-0.9500962E+01)
 number of electron    1584.0005270 magnetization 
 augmentation part     1012.1188758 magnetization 

 DIPCOR: dipole corrections for dipol
 direction  3 min pos     1,
 dipolmoment           0.000000      0.000000      0.033790 electrons x Angstroem
 Tr[quadrupol]    -53152.146960

 energy correction for charged system         0.000000 eV
 dipol+quadrupol energy correction           -0.000019 eV
 added-field ion interaction          0.000000 eV  (added to PSCEN)


 Free energy of the ion-electron system (eV)
  ---------------------------------------------------
  alpha Z        PSCENC =      2817.08819117
  Ewald energy   TEWEN  =   1153788.79185580
  -Hartree energ DENC   =  -1345334.18370417
  -exchange      EXHF   =         0.00000000
  -V(xc)+E(xc)   XCENC  =      6502.88613090
  PAW double counting   =    189343.93259659  -205134.91268066
  entropy T*S    EENTRO =        -0.00000000
  eigenvalues    EBANDS =     -3946.51987646
  atomic energy  EATOM  =    201927.82263697
  ---------------------------------------------------
  free energy    TOTEN  =       -35.09484986 eV

  energy without entropy =      -35.09484986  energy(sigma->0) =      -35.09484986


--------------------------------------------------------------------------------------------------------




--------------------------------------- Iteration      1(   8)  ---------------------------------------


    POTLOK:  cpu time      1.5879: real time      1.5893
    SETDIJ:  cpu time      0.0268: real time      0.0268
    TRIAL :  cpu time      5.7588: real time      5.7625
    CORREC:  cpu time      6.4652: real time      6.4691
    CHARGE:  cpu time      1.0092: real time      1.0099
    --------------------------------------------
      LOOP:  cpu time     14.8501: real time     14.8598

 eigenvalue-minimisations  :     0
 total energy-change (2. order) :-0.9525984E+01  (-0.8256942E+01)
 number of electron    1584.0005300 magnetization 
 augmentation part     1017.5749011 magnetization 

 DIPCOR: dipole corrections for dipol
 direction  3 min pos     1,
 dipolmoment           0.000000      0.000000     -0.188927 electrons x Angstroem
 Tr[quadrupol]    -53158.997927

 energy correction for charged system         0.000000 eV
 dipol+quadrupol energy correction           -0.000600 eV
 added-field ion interaction         -0.000000 eV  (added to PSCEN)


 Free energy of the ion-electron system (eV)
  ---------------------------------------------------
  alpha Z        PSCENC =      2817.08817644
  Ewald energy   TEWEN  =   1153788.79185580
  -Hartree energ DENC   =  -1342257.03912789
  -exchange      EXHF   =         0.00000000
  -V(xc)+E(xc)   XCENC  =      6489.08899957
  PAW double counting   =    188889.21304285  -204511.61533250
  entropy T*S    EENTRO =        -0.00000000
  eigenvalues    EBANDS =     -7187.97108521
  atomic energy  EATOM  =    201927.82263697
  ---------------------------------------------------
  free energy    TOTEN  =       -44.62083398 eV

  energy without entropy =      -44.62083398  energy(sigma->0) =      -44.62083398


--------------------------------------------------------------------------------------------------------




--------------------------------------- Iteration      1(   9)  ---------------------------------------


    POTLOK:  cpu time      1.5858: real time      1.5873
    SETDIJ:  cpu time      0.0252: real time      0.0252
    TRIAL :  cpu time      5.7872: real time      5.7918
    CORREC:  cpu time      6.4482: real time      6.4542
    CHARGE:  cpu time      1.0019: real time      1.0026
    --------------------------------------------
      LOOP:  cpu time     14.8506: real time     14.8633

 eigenvalue-minimisations  :     0
 total energy-change (2. order) :-0.8313894E+01  (-0.1678704E+01)
 number of electron    1584.0005299 magnetization 
 augmentation part     1017.0872349 magnetization 

 DIPCOR: dipole corrections for dipol
 direction  3 min pos     1,
 dipolmoment           0.000000      0.000000      1.534632 electrons x Angstroem
 Tr[quadrupol]    -53182.567498

 energy correction for charged system         0.000000 eV
 dipol+quadrupol energy correction           -0.039602 eV
 added-field ion interaction         -0.000000 eV  (added to PSCEN)


 Free energy of the ion-electron system (eV)
  ---------------------------------------------------
  alpha Z        PSCENC =      2817.08723553
  Ewald energy   TEWEN  =   1153788.79185580
  -Hartree energ DENC   =  -1342979.90949369
  -exchange      EXHF   =         0.00000000
  -V(xc)+E(xc)   XCENC  =      6519.61451361
  PAW double counting   =    189165.44175939  -204864.46587637
  entropy T*S    EENTRO =        -0.00000000
  eigenvalues    EBANDS =     -6427.31735912
  atomic energy  EATOM  =    201927.82263697
  ---------------------------------------------------
  free energy    TOTEN  =       -52.93472788 eV

  energy without entropy =      -52.93472788  energy(sigma->0) =      -52.93472788


--------------------------------------------------------------------------------------------------------




--------------------------------------- Iteration      1(  10)  ---------------------------------------


    POTLOK:  cpu time      1.5820: real time      1.5837
    SETDIJ:  cpu time      0.0254: real time      0.0254
    TRIAL :  cpu time      5.7017: real time      5.7063
    CORREC:  cpu time      6.5026: real time      6.5077
    CHARGE:  cpu time      0.9994: real time      1.0000
    --------------------------------------------
      LOOP:  cpu time     14.8137: real time     14.8256

 eigenvalue-minimisations  :     0
 total energy-change (2. order) :-0.1657709E+01  (-0.6421063E+00)
 number of electron    1584.0005300 magnetization 
 augmentation part     1017.1788516 magnetization 

 DIPCOR: dipole corrections for dipol
 direction  3 min pos     1,
 dipolmoment           0.000000      0.000000     -4.947765 electrons x Angstroem
 Tr[quadrupol]    -53175.620554

 energy correction for charged system         0.000000 eV
 dipol+quadrupol energy correction           -0.411646 eV
 added-field ion interaction          0.000000 eV  (added to PSCEN)


 Free energy of the ion-electron system (eV)
  ---------------------------------------------------
  alpha Z        PSCENC =      2817.07364179
  Ewald energy   TEWEN  =   1153788.79185580
  -Hartree energ DENC   =  -1343848.45209787
  -exchange      EXHF   =         0.00000000
  -V(xc)+E(xc)   XCENC  =      6518.59120226
  PAW double counting   =    189181.18661912  -204817.35411069
  entropy T*S    EENTRO =        -0.00000000
  eigenvalues    EBANDS =     -5622.25218470
  atomic energy  EATOM  =    201927.82263697
  ---------------------------------------------------
  free energy    TOTEN  =       -54.59243733 eV

  energy without entropy =      -54.59243733  energy(sigma->0) =      -54.59243733


--------------------------------------------------------------------------------------------------------




--------------------------------------- Iteration      1(  11)  ---------------------------------------


    POTLOK:  cpu time      1.5868: real time      1.5884
    SETDIJ:  cpu time      0.0267: real time      0.0267
    TRIAL :  cpu time      5.7162: real time      5.7204
    CORREC:  cpu time      6.5009: real time      6.5059
    CHARGE:  cpu time      0.9981: real time      0.9997
    --------------------------------------------
      LOOP:  cpu time     14.8310: real time     14.8435

 eigenvalue-minimisations  :     0
 total energy-change (2. order) :-0.6312949E+00  (-0.5079205E+00)
 number of electron    1584.0005303 magnetization 
 augmentation part     1017.6593140 magnetization 

 DIPCOR: dipole corrections for dipol
 direction  3 min pos     1,
 dipolmoment           0.000000      0.000000      3.840648 electrons x Angstroem
 Tr[quadrupol]    -53167.500728

 energy correction for charged system         0.000000 eV
 dipol+quadrupol energy correction           -0.248036 eV
 added-field ion interaction         -0.000000 eV  (added to PSCEN)


 Free energy of the ion-electron system (eV)
  ---------------------------------------------------
  alpha Z        PSCENC =      2817.04368656
  Ewald energy   TEWEN  =   1153788.79185580
  -Hartree energ DENC   =  -1343886.20795973
  -exchange      EXHF   =         0.00000000
  -V(xc)+E(xc)   XCENC  =      6519.61974180
  PAW double counting   =    189198.46190118  -204816.63609957
  entropy T*S    EENTRO =        -0.00000000
  eigenvalues    EBANDS =     -5604.11949518
  atomic energy  EATOM  =    201927.82263697
  ---------------------------------------------------
  free energy    TOTEN  =       -55.22373218 eV

  energy without entropy =      -55.22373218  energy(sigma->0) =      -55.22373218


--------------------------------------------------------------------------------------------------------




--------------------------------------- Iteration      1(  12)  ---------------------------------------


    POTLOK:  cpu time      1.5801: real time      1.5807
    SETDIJ:  cpu time      0.0266: real time      0.0266
    TRIAL :  cpu time      5.7018: real time      5.7071
    CORREC:  cpu time      6.4493: real time      6.4546
    CHARGE:  cpu time      1.0047: real time      1.0052
    --------------------------------------------
      LOOP:  cpu time     14.7650: real time     14.7768

 eigenvalue-minimisations  :     0
 total energy-change (2. order) :-0.4971133E+00  (-0.3197453E+00)
 number of electron    1584.0005310 magnetization 
 augmentation part     1018.7195100 magnetization 

 DIPCOR: dipole corrections for dipol
 direction  3 min pos     1,
 dipolmoment           0.000000      0.000000      0.099409 electrons x Angstroem
 Tr[quadrupol]    -53173.518480

 energy correction for charged system         0.000000 eV
[...]
  364              map_backward                         12.357048                   7128   6
  365                map_gather                            1.021949                 3564   7
  366                m_alltoallv_z                        10.721631                 3564   7
  367                map_scatter                           0.547888                 3564   7
  368        ggaall_grid                          31.278173                          611   3
  369        m_sumb_d                              0.541546                         3160   3
  370        fewald                                0.043801                           70   3
  371          rsp                                   0.040106                         70   4
  372          rcp                                   0.003209                         70   4
  373        pothar                                0.031398                           35   3
  374          m_sumb_d                              0.019185                         35   4
  375        m_bcast_d                             0.073808                           35   3
  376      potlok_metagga                        0.000060                             35   2
  377      set_dd_magatom                        0.000019                             18   2
  378      set_dd_paw                            0.405080                             35   2
  379        set_rsgf_all                          0.000047                           35   3
  380        m_sumb_d                              0.398224                          245   3
  381      wavpre_noio                           0.967195                             17   2
  382        stufak                                0.933957                           17   3
  383      eddiag                               63.217559                             17   2
  384        overl                                 0.016854                           17   3
  385        redis_proj                            0.360798                           51   3
  386          m_alltoall_d                          0.353854                       1530   4
  387        fftwav_mpi                            2.551432                          510   3
  388          fft3d_mpi                             2.289656                        510   4
  389            fftbas_mpi                            2.287379                      510   5
  390              fftbas_plan_mpi                       2.285739                    510   6
  391                dfftw_execute                         1.105188                 1530   7
  392                map_forward                           0.904463                 1020   7
  393                  map_gather                            0.200878                510   8
  394                  m_alltoallv_z                         0.290413                510   8
  395                  map_scatter                           0.253667                510   8
  396        hamilt_local                          2.550346                          510   3
  397          vhamil                                0.277444                        510   4
  398          kinhamil                              2.268638                        510   4
  399            fftext_mpi                            2.226587                      510   5
  400              fft3d_mpi                             2.137831                    510   6
  401                fftbas_mpi                            2.136177                  510   7
  402                  fftbas_plan_mpi                       2.134704                510   8
  403                    dfftw_execute                         1.108460             1530   9
  404                    map_backward                          0.753307             1020   9
  405                      map_gather                            0.248400            510  10
  406                      m_alltoallv_z                         0.256475            510  10
  407                      map_scatter                           0.238915            510  10
  408        redis_pw                              1.122739                         1037   3
  409          m_alltoall_d                          1.009426                       1530   4
  410        orth1                                 1.741089                          510   3
  411        m_sumb_d                              1.279824                           17   3
  412        shift_bands_between_low_high          0.000024                           17   3
  413        lincom                                2.496644                           17   3
  414      set_charge                           16.844823                             17   2
  415        soft_charge                           2.460225                           17   3
  416          fftwav_mpi                            2.047258                        425   4
  417            fft3d_mpi                             1.836316                      425   5
  418              fftbas_mpi                            1.834665                    425   6
  419                fftbas_plan_mpi                       1.833431                  425   7
  420                  dfftw_execute                         0.911773               1275   8
  421                  map_forward                           0.694371                850   8
  422                    map_gather                            0.150155              425   9
  423                    m_alltoallv_z                         0.211764              425   9
  424                    map_scatter                           0.199706              425   9
  425          pw_charge                             0.212939                        425   4
  426          m_sumb_d                              0.118476                         17   4
  427          fft_gq                                0.065490                         17   4
  428            fft3d_mpi                             0.062304                       17   5
  429              fftbrc_mpi                            0.056695                     17   6
  430                fftbas_plan_mpi                       0.056651                   17   7
  431                  dfftw_execute                         0.013285                 51   8
  432                  map_backward                          0.033189                 34   8
  433                    map_gather                            0.006441               34   9
  434                    m_alltoallv_z                         0.024688               34   9
  435                    map_scatter                           0.001643               34   9
  436        m_sumb_d                              0.684189                           17   3
  437        depsum                                0.027654                           17   3
  438          m_sumb_d                              0.010810                         17   4
  439        augmentation_charge                   0.384747                           17   3
  440          m_sumb_d                              0.015824                         17   4
  441          fft3d_mpi                             0.065212                         17   4
  442            fftbrc_mpi                            0.062898                       17   5
  443              fftbas_plan_mpi                       0.062848                     17   6
  444                dfftw_execute                         0.010839                   51   7
  445                map_backward                          0.041446                   34   7
  446                  map_gather                            0.004968                 17   8
  447                  m_alltoallv_z                         0.033740                 17   8
  448                  map_scatter                           0.002435                 17   8
 
 Flat profile
 ============
 
             routine name                   CPU           calls
 ---------------------------------------------------------------
 edwav                                2082.818462         642
 potlok                                769.432750         678
 set_charge                            522.719712         660
 lincom                                249.088293        1984
 dfftw_execute                         198.791820      395181
 m_alltoallv_z                         188.520318      133065
 m_sumb_d                              175.408585      183969
 m_alltoall_d                          121.337627      339811
 ggaall_grid                           111.134171        1272
 orth1                                 106.711327       31869
 eddiag                                 97.610498         356
 choleski                               85.068487         660
 fftbas_plan_mpi                        77.417010      131727
 map_scatter                            50.599717      133065
 map_gather                             40.766262      133065
 total_time                             32.988480           1
 fftwav_mpi                             27.183271       54236
 eccp                                   22.779055       38670
 eddav                                  20.698132           5
 force_and_stress                       20.435279          18
 racc0                                  19.338921       10093
 rpro1                                  18.506412        9943
 map_forward                            17.614143      164548
 crrexp_mul_wave                        13.998040     2442672
 setdij_                                12.559151        1147
 crrexp_mul_work_add                    12.396410     1453392
 augmentation_charge                    11.698470         660
 fft3d_mpi                               9.507812      131727
 rspher_all                              8.837480         235
 pw_charge                               8.287500       16500
 phaser                                  7.602007         560
 rpromu_gemm                             7.005319      269568
 redis_pw                                6.882660       43545
 vhamil                                  5.993860       11143
 fftext_mpi                              5.167382       20773
 orthch                                  4.075140         660
 w1_dscal                                3.652757        9630
 m_bcast_z                               3.611980        1453
 lapack                                  2.890978         463
 ggemm                                   2.756324         613
 rpromu                                  2.226088        1872
 overl                                   1.776965       11743
 m_bcast_d                               1.692265        1677
 elmin_all                               1.617814          18
 redis_proj                              1.502416       37673
 forloc                                  1.497366          18
 forhar                                  1.486084          18
 stufak                                  0.988977          18
 kinhamil                                0.955117       11143
 map_backward                            0.919410       98906
 rsp                                     0.844723        1374
 depsum                                  0.658304         660
 soft_charge                             0.600983         660
 densta                                  0.357194         671
 inisym                                  0.280882           1
 strnlr                                  0.233879          18
 fftbas_mpi                              0.232172       75009
 pothar                                  0.230291         678
 set_dd_paw                              0.211297         696
 fftbrc_mpi                              0.172165       56718
 fft_gq                                  0.122593         660
 w1_copy                                 0.113734        1389
 hamilt_local                            0.090603       10680
 rpro_isp                                0.086126         234
 fornlr                                  0.077490          18
 rcp                                     0.068930        1374
 strkin                                  0.058220          18
 wavpre_noio                             0.033238          17
 setup_precond                           0.029812         150
 apply_precond                           0.028801         313
 strelo                                  0.026079          18
 overl1                                  0.024327         463
 fewald                                  0.023746        1374
 strehar                                 0.022982          18
 newband                                 0.007599         468
 hamiltmu                                0.007507         463
 posmap                                  0.006680           2
 redis_pw_all                            0.005285         642
 raccmu_                                 0.004532         463
 fordep                                  0.004199          18
 redis_pw_over_bands                     0.002807         677
 w1_projall                              0.001602         313
 set_rsgf_all                            0.001143         696
 potlok_metagga                          0.000794         678
 brgrid                                  0.000671           1
 truncate_high_frequency_w1              0.000590         613
 proall                                  0.000364          18
 crpa_reader                             0.000308           1
 rotate_active_occupied_orbital          0.000133          18
 set_dd_magatom                          0.000056          36
 shift_bands_between_low_high            0.000047          35
 vectorpot                               0.000025           1
 ---------------------------------------------------------------
  summed up times    5203.22741699219     
 
 Accumulative profile
 ====================
 
             routine name                   CPU           calls
 ---------------------------------------------------------------
 total_time                           5203.227417           1
 elmin_all                            4864.890641          18
 edwav                                3020.308873         642
 potlok                               1131.068005         678
 set_charge                            662.646728         660
 fft3d_mpi                             584.540828      131727
 fftbas_plan_mpi                       574.628679      131727
 fftbas_mpi                            325.704594       75009
 orthch                                273.714218         660
 fftwav_mpi                            265.824520       54236
 fftbrc_mpi                            249.328422       56718
 lincom                                249.088293        1984
 dfftw_execute                         198.791820      395181
 m_alltoallv_z                         188.520318      133065
 map_forward                           183.929015      164548
 eddiag                                176.375141         356
 m_sumb_d                              175.408585      183969
 m_alltoall_d                          121.337627      339811
 map_backward                          114.490835       98906
 ggaall_grid                           111.134171        1272
 orth1                                 106.711327       31869
 force_and_stress                       95.847885          18
 soft_charge                            95.751610         660
 fftext_mpi                             92.537926       20773
 choleski                               85.068487         660
 redis_pw                               75.496784       43545
 redis_proj                             54.225919       37673
 hamilt_local                           53.180484       10680
 map_scatter                            50.599717      133065
 rpro_isp                               49.873558         234
 kinhamil                               49.443665       11143
 eddav                                  43.981962           5
 strnlr                                 43.531753          18
 map_gather                             40.766262      133065
 racc0                                  33.653731       10093
 rpro1                                  28.469383        9943
 eccp                                   24.670901       38670
 setdij_                                15.557647        1147
 rpromu                                 15.512799        1872
 redis_pw_over_bands                    15.087725         677
 redis_pw_all                           15.084918         642
 augmentation_charge                    14.890950         660
 fornlr                                 14.626311          18
 crrexp_mul_wave                        13.998040     2442672
 crrexp_mul_work_add                    12.396410     1453392
 rspher_all                              8.837480         235
 pw_charge                               8.287500       16500
 set_dd_paw                              8.143289         696
 phaser                                  7.602007         560
 rpromu_gemm                             7.005319      269568
 vhamil                                  5.993860       11143
 proall                                  4.121944          18
 hamiltmu                                3.929379         463
 w1_dscal                                3.652757        9630
 m_bcast_z                               3.611980        1453
 lapack                                  2.890978         463
 densta                                  2.849085         671
 ggemm                                   2.756324         613
 fft_gq                                  2.521401         660
 overl                                   1.776965       11743
 m_bcast_d                               1.692265        1677
 raccmu_                                 1.574228         463
 forloc                                  1.512748          18
 forhar                                  1.506815          18
 fordep                                  1.421478          18
 depsum                                  1.382492         660
 newband                                 1.111875         468
 fewald                                  1.011397        1374
 stufak                                  0.988977          18
 wavpre_noio                             0.967195          17
 w1_projall                              0.898024         313
 rsp                                     0.844723        1374
 pothar                                  0.646755         678
 inisym                                  0.287562           1
 w1_copy                                 0.113734        1389
 rcp                                     0.068930        1374
 strkin                                  0.068606          18
 strelo                                  0.042457          18
 setup_precond                           0.035414         150
 strehar                                 0.033084          18
 apply_precond                           0.028801         313
 overl1                                  0.024327         463
 posmap                                  0.006680           2
 set_rsgf_all                            0.001143         696
 potlok_metagga                          0.000794         678
 brgrid                                  0.000671           1
 truncate_high_frequency_w1              0.000590         613
 crpa_reader                             0.000308           1
 rotate_active_occupied_orbital          0.000133          18
 set_dd_magatom                          0.000056          36
 shift_bands_between_low_high            0.000047          35
 vectorpot                               0.000025           1
 ---------------------------------------------------------------
 
Profiling took   4.600313  2.146922  0.008917  0.007893 seconds
Profiling took   5.155787 seconds
