 vasp.6.3.2 27Jun22 (build Oct 04 2023 22:42:02) gamma-only                     
  
 executed on           IFC15_impi date 2023.10.21  08:13:07
 running   64 mpi-ranks, with    1 threads/rank
 distrk:  each k-point on   64 cores,    1 groups
 distr:  one band on NCORE=   1 cores,   64 groups


--------------------------------------------------------------------------------------------------------


 INCAR:
   ENCUT = 500.000000
   SIGMA = 0.010000
   EDIFF = 1.00e-05
   ALGO = A
   ISMEAR = 0
   NELM = 200
   NSW = 999
   LCHARG = .FALSE.
   LWAVE = .FALSE.
   LREAL = Auto
   IBRION = 5
   POTIM = 0.015
   NFREE = 2
   ISYM = 0
   EDIFFG = -0.05
   GGA = BF
   LUSE_VDW = .TRUE.
   ZAB_VDW = -1.8867
   LBEEFENS = .TRUE.

 POTCAR:    PAW_PBE H 15Jun2001                   
 -----------------------------------------------------------------------------
|                                                                             |
|               ----> ADVICE to this user running VASP <----                  |
|                                                                             |
|     You have switched on vdW-DFT.                                           |
|     This routine was written and supplied by Jiri Klimes. We recommend      |
|     that you carefully read and cite the following publications:            |
|       J. Klimes, D.R. Bowler, A. Michelides                                 |
|          J. Phys.: Cond Matt. 22 022201 (2010)                              |
|       J. Klimes, D.R. Bowler, A. Michelides                                 |
|          Phys. Rev. B. 83, 195131 (2011)                                    |
|     and references therein.                                                 |
|                                                                             |
 -----------------------------------------------------------------------------

 POTCAR:    PAW_PBE H 15Jun2001                   
   SHA256 =  030f79b5d3ab3cf0e668861823c8fb652ff669f3e15e46930bd03bfd63a607b6 H/POTCAR              
   COPYR  = (c) Copyright 15Jun2001 Georg Kresse                                                    
   COPYR  = This file is part of the software VASP. Any use, copying, and all other rights are regul
   COPYR  = If you do not have a valid VASP license, you may not use, copy or distribute this file. 
   VRHFIN =H: ultrasoft test                                                                        
   LEXCH  = PE                                                                                      
   EATOM  =    12.4884 eV,    0.9179 Ry                                                             
                                                                                                    
   TITEL  = PAW_PBE H 15Jun2001                                                                     
   LULTRA =        F    use ultrasoft PP ?                                                          
   IUNSCR =        0    unscreen: 0-lin 1-nonlin 2-no                                               
   RPACOR =    0.000    partial core radius                                                         
   POMASS =    1.000; ZVAL   =    1.000    mass and valenz                                          
   RCORE  =    1.100    outmost cutoff radius                                                       
   RWIGS  =    0.700; RWIGS  =    0.370    wigner-seitz radius (au A)                               
   ENMAX  =  250.000; ENMIN  =  200.000 eV                                                          
   RCLOC  =    0.701    cutoff for local pot                                                        
   LCOR   =        T    correct aug charges                                                         
   LPAW   =        T    paw PP                                                                      
   EAUG   =  400.000                                                                                
   RMAX   =    1.123    core radius for proj-oper                                                   
   RAUG   =    1.200    factor for augmentation sphere                                              
   RDEP   =    1.112    radius for radial grids                                                     
   RDEPT  =    0.926    core radius for aug-charge                                                  
                                                                                                    
   Atomic configuration                                                                             
    2 entries                                                                                       
     n  l   j            E        occ.                                                              
     1  0  0.50        -6.4927   1.0000                                                             
     2  1  0.50        -3.4015   0.0000                                                             
   Description                                                                                      
     l       E           TYP  RCUT    TYP  RCUT                                                     
     0     -6.4927494     23  1.100                                                                 
     0      6.8029130     23  1.100                                                                 
     1     -4.0817478     23  1.100                                                                 
  local pseudopotential read in
  atomic valenz-charges read in
  non local Contribution for L=           0  read in
    real space projection operators read in
  non local Contribution for L=           0  read in
    real space projection operators read in
  non local Contribution for L=           1  read in
    real space projection operators read in
    PAW grid and wavefunctions read in
 
   number of l-projection  operators is LMAX  =           3
   number of lm-projection operators is LMMAX =           5
 
 -----------------------------------------------------------------------------
|                                                                             |
|               ----> ADVICE to this user running VASP <----                  |
|                                                                             |
|     You have a (more or less) 'small supercell' and for smaller cells       |
|     it is recommended to use the reciprocal-space projection scheme!        |
|     The real-space optimization is not efficient for small cells and it     |
|     is also less accurate ...                                               |
|     Therefore, set LREAL=.FALSE. in the INCAR file.                         |
|                                                                             |
 -----------------------------------------------------------------------------

 Optimization of the real space projectors (new method)

 maximal supplied QI-value         = 34.20
 optimisation between [QCUT,QGAM] = [ 11.29, 22.57] = [ 35.68,142.71] Ry 
 Optimized for a Real-space Cutoff    1.16 Angstroem

   l    n(q)    QCUT    max X(q) W(low)/X(q) W(high)/X(q)  e(spline) 
   0      8    11.287    19.460    0.40E-03    0.73E-03    0.16E-06
   0      8    11.287    12.209    0.38E-03    0.70E-03    0.15E-06
   1      7    11.287     4.655    0.22E-03    0.25E-04    0.22E-06
 -----------------------------------------------------------------------------
|                                                                             |
|               ----> ADVICE to this user running VASP <----                  |
|                                                                             |
|     You enforced a specific xc type in the INCAR file but a different       |
|     type was found in the POTCAR file.                                      |
|     I HOPE YOU KNOW WHAT YOU ARE DOING!                                     |
|                                                                             |
 -----------------------------------------------------------------------------

  PAW_PBE H 15Jun2001                   :
 energy of atom  1       EATOM=  -12.4884
 kinetic energy error for atom=    0.0020 (will be added to EATOM!!)
 
 
 POSCAR: H2
  positions in direct lattice
  velocities in cartesian coordinates
 exchange correlation table for  LEXCH =       17
   RHO(1)=    0.500       N(1)  =     2000
   RHO(2)=  100.500       N(2)  =     4000

 VTST: version 4.1, (05/19/21)

 CHAIN: initializing optimizer
 
 OPT: Using VASP Dynamics algorithm
 CHAIN: Read ICHAIN            0
 
 POSCAR: H2
  positions in direct lattice
  velocities in cartesian coordinates
 


--------------------------------------------------------------------------------------------------------


 ion  position               nearest neighbor table
   1  0.500  0.500  0.500-   2 0.74
   2  0.500  0.500  0.524-   1 0.74
 

IMPORTANT INFORMATION: All symmetrisations will be switched off!
NOSYMM: (Re-)initialisation of all symmetry stuff for point group C_1.


----------------------------------------------------------------------------------------

                                     Primitive cell                                     

  volume of cell :   15847.8426

  direct lattice vectors                    reciprocal lattice vectors
    23.670780182  0.000000000  0.000000000     0.042246178  0.000000000  0.000000000
     0.000000000 22.317026138  0.000000000     0.000000000  0.044808838  0.000000000
     0.000000000  0.000000000 30.000000000     0.000000000  0.000000000  0.033333333

  length of vectors
    23.670780182 22.317026138 30.000000000     0.042246178  0.044808838  0.033333333

  position of ions in fractional coordinates (direct lattice)
     0.500000419  0.499999414  0.499556626
     0.500000419  0.499999414  0.524076707

  ion indices of the primitive-cell ions
   primitive index   ion index
                 1           1
                 2           2

----------------------------------------------------------------------------------------

 
 
 KPOINTS: KPOINTS created by Atomic Simulation Env

Automatic generation of k-mesh.
 Grid dimensions read from file:
 generate k-points for:    1    1    1

 Generating k-lattice:

  Cartesian coordinates                     Fractional coordinates (reciprocal lattice)
     0.042246178  0.000000000  0.000000000     1.000000000  0.000000000  0.000000000
     0.000000000  0.044808838  0.000000000     0.000000000  1.000000000  0.000000000
     0.000000000  0.000000000  0.033333333     0.000000000  0.000000000  1.000000000

  Length of vectors
     0.042246178  0.044808838  0.033333333

  Shift w.r.t. Gamma in fractional coordinates (k-lattice)
     0.000000000  0.000000000  0.000000000

 
 Subroutine IBZKPT returns following result:
 ===========================================
 
 Found      1 irreducible k-points:
 
 Following reciprocal coordinates:
            Coordinates               Weight
  0.000000  0.000000  0.000000      1.000000
 
 Following cartesian coordinates:
            Coordinates               Weight
  0.000000  0.000000  0.000000      1.000000
 
 
 Subroutine IBZKPT_HF returns following result:
 ==============================================
 
 Found      1 k-points in 1st BZ
 the following      1 k-points will be used (e.g. in the exchange kernel)
 Following reciprocal coordinates:   # in IRBZ
  0.000000  0.000000  0.000000    1.00000000   1 t-inv F


--------------------------------------------------------------------------------------------------------




 Dimension of arrays:
   k-points           NKPTS =      1   k-points in BZ     NKDIM =      1   number of bands    NBANDS=     64
   number of dos      NEDOS =    301   number of ions     NIONS =      2
   non local maximal  LDIM  =      3   non local SUM 2l+1 LMDIM =      5
   total plane-waves  NPLWV = ******
   max r-space proj   IRMAX =   1285   max aug-charges    IRDMAX=   1108
   dimension x,y,z NGX =   140 NGY =  126 NGZ =  168
   dimension x,y,z NGXF=   280 NGYF=  252 NGZF=  336
   support grid    NGXF=   280 NGYF=  252 NGZF=  336
   ions per type =               2
   NGX,Y,Z   is equivalent  to a cutoff of   9.83,  9.39,  9.31 a.u.
   NGXF,Y,Z  is equivalent  to a cutoff of  19.67, 18.77, 18.62 a.u.

 SYSTEM =  unknown system                          
 POSCAR =  H2                                      

 Startparameter for this run:
   NWRITE =      2    write-flag & timer
   PREC   = normal    normal or accurate (medium, high low for compatibility)
   ISTART =      0    job   : 0-new  1-cont  2-samecut
   ICHARG =      2    charge: 1-file 2-atom 10-const
   ISPIN  =      1    spin polarized calculation?
   LNONCOLLINEAR =      F non collinear calculations
   LSORBIT =      F    spin-orbit coupling
   INIWAV =      1    electr: 0-lowe 1-rand  2-diag
   LASPH  =      F    aspherical Exc in radial PAW
 Electronic Relaxation 1
   ENCUT  =  500.0 eV  36.75 Ry    6.06 a.u.  43.16 40.69 54.70*2*pi/ulx,y,z
   ENINI  =  500.0     initial cutoff
   ENAUG  =  400.0 eV  augmentation charge cutoff
   NELM   =    200;   NELMIN=  2; NELMDL= -5     # of ELM steps 
   EDIFF  = 0.1E-04   stopping-criterion for ELM
   LREAL  =      T    real-space projection
   NLSPLINE    = F    spline interpolate recip. space projectors
   LCOMPAT=      F    compatible to vasp.4.4
   GGA_COMPAT  = T    GGA compatible to vasp.4.4-vasp.4.6
   LMAXPAW     = -100 max onsite density
   LMAXMIX     =    2 max onsite mixed and CHGCAR
   VOSKOWN=      0    Vosko Wilk Nusair interpolation
   ROPT   =   -0.00050
 Ionic relaxation
   EDIFFG = -.5E-01   stopping-criterion for IOM
   NSW    =     61    number of steps for IOM
   NBLOCK =      1;   KBLOCK =     61    inner block; outer block 
   IBRION =      5    ionic relax: 0-MD 1-quasi-New 2-CG
   NFREE  =      2    steps in history (QN), initial steepest desc. (CG)
   ISIF   =      2    stress and relaxation
   IWAVPR =     11    prediction:  0-non 1-charg 2-wave 3-comb
   ISYM   =      0    0-nonsym 1-usesym 2-fastsym
   LCORR  =      T    Harris-Foulkes like correction to forces

   POTIM  = 0.0150    time-step for ionic-motion
   TEIN   =    0.0    initial temperature
   TEBEG  =    0.0;   TEEND  =   0.0 temperature during run
   SMASS  =  -3.00    Nose mass-parameter (am)
   estimated Nose-frequenzy (Omega)   =  0.10E-29 period in steps = 0.42E+48 mass=  -0.128E-25a.u.
   SCALEE = 1.0000    scale energy and forces
   NPACO  =    256;   APACO  = 10.0  distance and # of slots for P.C.
   PSTRESS=    0.0 pullay stress

  Mass of Ions in am
   POMASS =   1.00
  Ionic Valenz
   ZVAL   =   1.00
  Atomic Wigner-Seitz radii
   RWIGS  =  -1.00
  virtual crystal weights 
   VCA    =   1.00
   NELECT =       2.0000    total number of electrons
   NUPDOWN=      -1.0000    fix difference up-down

 DOS related values:
   EMIN   =  10.00;   EMAX   =-10.00  energy-range for DOS
   EFERMI =   0.00
   ISMEAR =     0;   SIGMA  =   0.01  broadening in eV -4-tet -1-fermi 0-gaus

 Electronic relaxation 2 (details)
   IALGO  =     58    algorithm
   LDIAG  =      T    sub-space diagonalisation (order eigenvalues)
   LSUBROT=      F    optimize rotation matrix (better conditioning)
   TURBO    =      0    0=normal 1=particle mesh
   IRESTART =      0    0=no restart 2=restart with 2 vectors
   NREBOOT  =      0    no. of reboots
   NMIN     =      0    reboot dimension
   EREF     =   0.00    reference energy to select bands
   IMIX   =      4    mixing-type and parameters
     AMIX     =   0.40;   BMIX     =  1.00
     AMIX_MAG =   1.60;   BMIX_MAG =  1.00
     AMIN     =   0.10
     WC   =   100.;   INIMIX=   1;  MIXPRE=   1;  MAXMIX= -45

 Intra band minimization:
   WEIMIN = 0.0010     energy-eigenvalue tresh-hold
   EBREAK =  0.39E-07  absolut break condition
   DEPER  =   0.30     relativ break condition  

   TIME   =   0.40     timestep for ELM

  volume/ion in A,a.u.               =    7923.92     53473.26
  Fermi-wavevector in a.u.,A,eV,Ry     =   0.082116  0.155177  0.091745  0.006743
  Thomas-Fermi vector in A             =   0.611038
 
 Write flags
   LWAVE        =      F    write WAVECAR
   LDOWNSAMPLE  =      F    k-point downsampling of WAVECAR
   LCHARG       =      F    write CHGCAR
   LVTOT        =      F    write LOCPOT, total local potential
   LVHAR        =      F    write LOCPOT, Hartree potential only
   LELF         =      F    write electronic localiz. function (ELF)
   LORBIT       =      0    0 simple, 1 ext, 2 COOP (PROOUT), +10 PAW based schemes


 Dipole corrections
   LMONO  =      F    monopole corrections only (constant potential shift)
   LDIPOL =      F    correct potential (dipole corrections)
   IDIPOL =      0    1-x, 2-y, 3-z, 4-all directions 
   EPSILON=  1.0000000 bulk dielectric constant

 Exchange correlation treatment:
   GGA     =    BF    GGA type
   LEXCH   =    17    internal setting for exchange type
   LIBXC   =     F    Libxc                    
   VOSKOWN =     0    Vosko Wilk Nusair interpolation
   LHFCALC =     F    Hartree Fock is set to
   LHFONE  =     F    Hartree Fock one center treatment
   AEXX    =    0.0000 exact exchange contribution

 vdW DFT:
   LUSE_VDW   =     T    switch on vdW DFT
   Zab_VDW    =******    correlation parameter
   PARAM1     =0.1234
   PARAM2     =1.0000
   PARAM3     =0.0000
   -- rVV10 --
   BPARAM     = 6.3000
   CPARAM     = 0.0093

 Linear response parameters
   LEPSILON=     F    determine dielectric tensor
   LRPA    =     F    only Hartree local field effects (RPA)
   LNABLA  =     F    use nabla operator in PAW spheres
   LVEL    =     F    velocity operator in full k-point grid
   CSHIFT  =0.1000    complex shift for real part using Kramers Kronig
   OMEGAMAX=  -1.0    maximum frequency
   DEG_THRESHOLD= 0.2000000E-02 threshold for treating states as degnerate
   RTIME   =   -0.100 relaxation time in fs
  (WPLASMAI=    0.000 imaginary part of plasma frequency in eV, 0.658/RTIME)
   DFIELD  = 0.0000000 0.0000000 0.0000000 field for delta impulse in time
 
  Optional k-point grid parameters
   LKPOINTS_OPT  =     F    use optional k-point grid
   KPOINTS_OPT_MODE=     1    mode for optional k-point grid
 
 Orbital magnetization related:
   ORBITALMAG=     F  switch on orbital magnetization
   LCHIMAG   =     F  perturbation theory with respect to B field
   DQ        =  0.001000  dq finite difference perturbation B field
   LLRAUG    =     F  two centre corrections for induced B field



--------------------------------------------------------------------------------------------------------


 finite differences
 charge density and potential will be updated during run
 non-spin polarized calculation
 Conjugate gradient for all bands (Freysoldt, et al. PRB 79, 241103 (2009))
 preconditioned conjugated gradient                                        
 perform sub-space diagonalisation
    before iterative eigenvector-optimisation
 modified Broyden-mixing scheme, WC =      100.0
 initial mixing is a Kerker type mixing with AMIX =  0.4000 and BMIX =      1.0000
 Hartree-type preconditioning will be used
 using additional bands           63
 real space projection scheme for non local part
 no Harris-corrections to forces 
 use gradient corrections 
 use of overlap-Matrix (Vanderbilt PP)
 Gauss-broadening in eV      SIGMA  =   0.01


--------------------------------------------------------------------------------------------------------


  energy-cutoff  :      500.00
  volume of cell :    15847.84
      direct lattice vectors                 reciprocal lattice vectors
    23.670780182  0.000000000  0.000000000     0.042246178  0.000000000  0.000000000
     0.000000000 22.317026138  0.000000000     0.000000000  0.044808838  0.000000000
     0.000000000  0.000000000 30.000000000     0.000000000  0.000000000  0.033333333

  length of vectors
    23.670780182 22.317026138 30.000000000     0.042246178  0.044808838  0.033333333


 
 k-points in units of 2pi/SCALE and weight: KPOINTS created by Atomic Simulation Env
   0.00000000  0.00000000  0.00000000       1.000
 
 k-points in reciprocal lattice and weights: KPOINTS created by Atomic Simulation Env
   0.00000000  0.00000000  0.00000000       1.000
 
 position of ions in fractional coordinates (direct lattice) 
   0.50000042  0.49999941  0.49955663
   0.50000042  0.49999941  0.52407671
 
 position of ions in cartesian coordinates  (Angst):
  11.83540000 11.15850000 14.98669878
  11.83540000 11.15850000 15.72230122
 


--------------------------------------------------------------------------------------------------------


 use serial FFT for orbitals x direction half grid
 k-point   1 :   0.0000 0.0000 0.0000  plane waves:  201172

 maximum and minimum number of plane-waves per node :    201172   201172

 maximum number of plane-waves:    201172
 maximum index in each direction: 
   IXMAX=   43   IYMAX=   40   IZMAX=   54
   IXMIN=    0   IYMIN=  -40   IZMIN=  -54


 serial   3D FFT for wavefunctions
 parallel 3D FFT for charge:
    minimum data exchange during FFTs selected (reduces bandwidth)


 total amount of memory used by VASP MPI-rank0   204902. kBytes
=======================================================================

   base      :      30000. kBytes
   nonlr-proj:        106. kBytes
   fftplans  :      25914. kBytes
   grid      :     139224. kBytes
   one-center:          1. kBytes
   wavefun   :       9657. kBytes
 
     INWAV:  cpu time      0.0001: real time      0.0001
 Broyden mixing: mesh for mixing (old mesh)
   NGX = 87   NGY = 81   NGZ =109
  (NGX  =280   NGY  =252   NGZ  =336)
  gives a total of 768123 points

 initial charge density was supplied:
 charge density of overlapping atoms calculated
 number of electron       2.0000000 magnetization 
 keeping initial charge density in first step


--------------------------------------------------------------------------------------------------------


 Maximum index for non-local projection operator         1213
 Maximum index for augmentation-charges            0 (set IRDMAX)


--------------------------------------------------------------------------------------------------------


 First call to EWALD:  gamma=   0.071
 Maximum number of real-space cells 3x 3x 2
 Maximum number of reciprocal cells 3x 2x 3

    FEWALD:  cpu time      0.0059: real time      0.0059


--------------------------------------- Iteration      1(   1)  ---------------------------------------


vdW kernel read from vdw_kernel.bindat
  0.0000  0.2424  0.5071  0.7962  1.1119  1.4567  1.8333  2.2446  2.6937  3.1842
  3.7199  4.3049  4.9438  5.6415  6.4036  7.2358  8.1446  9.1372 10.2212 11.4050
 12.6979 14.1099 15.6519 17.3360 19.1751 21.1837 23.3773 25.7729 28.3892 31.2465
 34.3669 37.7748 41.4965 45.5611 50.0000
 
    POTLOK:  cpu time     16.6270: real time     16.6351
    SETDIJ:  cpu time      0.0091: real time      0.0091
    TRIAL :  cpu time      1.5834: real time      1.6256
    CORREC:  cpu time      0.0007: real time      0.0007
    --------------------------------------------
      LOOP:  cpu time     18.2315: real time     18.2854

 eigenvalue-minimisations  :   128
 total energy-change (2. order) :-0.2453100E+00  (-0.2139203E+02)
 number of electron       2.0000000 magnetization 
 augmentation part        2.0000000 magnetization 

 Free energy of the ion-electron system (eV)
  ---------------------------------------------------
  alpha Z        PSCENC =         0.00061489
  Ewald energy   TEWEN  =        16.40695457
  -Hartree energ DENC   =       -25.57839697
  -exchange      EXHF   =         0.00000000
  -V(xc)+E(xc)   XCENC  =         4.21562451
  PAW double counting   =         3.83046721       -3.86378238
  entropy T*S    EENTRO =        -0.00000000
  eigenvalues    EBANDS =       -21.04744906
  atomic energy  EATOM  =        25.79065728
  ---------------------------------------------------
  free energy    TOTEN  =        -0.24530996 eV

  energy without entropy =       -0.24530996  energy(sigma->0) =       -0.24530996


--------------------------------------------------------------------------------------------------------




--------------------------------------- Iteration      1(   2)  ---------------------------------------


    TRIAL :  cpu time      1.4439: real time      1.4400
    CORREC:  cpu time      0.0003: real time      0.0003
    --------------------------------------------
      LOOP:  cpu time      1.4465: real time      1.4571

 eigenvalue-minimisations  :   128
 total energy-change (2. order) :-0.7449506E+01  (-0.7449506E+01)
 number of electron       2.0000000 magnetization 
 augmentation part        2.0000000 magnetization 

 Free energy of the ion-electron system (eV)
  ---------------------------------------------------
  alpha Z        PSCENC =         0.00061489
  Ewald energy   TEWEN  =        16.40695457
  -Hartree energ DENC   =       -25.57839697
  -exchange      EXHF   =         0.00000000
  -V(xc)+E(xc)   XCENC  =         4.21562451
  PAW double counting   =         3.83046721       -3.86378238
  entropy T*S    EENTRO =        -0.00000000
  eigenvalues    EBANDS =       -28.49695482
  atomic energy  EATOM  =        25.79065728
  ---------------------------------------------------
  free energy    TOTEN  =        -7.69481572 eV

  energy without entropy =       -7.69481572  energy(sigma->0) =       -7.69481572


--------------------------------------------------------------------------------------------------------




--------------------------------------- Iteration      1(   3)  ---------------------------------------


    TRIAL :  cpu time      1.9508: real time      1.9497
    CORREC:  cpu time      0.0005: real time      0.0005
    --------------------------------------------
      LOOP:  cpu time      1.9530: real time      1.9655

 eigenvalue-minimisations  :   192
 total energy-change (2. order) :-0.2978649E+00  (-0.2978649E+00)
 number of electron       2.0000000 magnetization 
 augmentation part        2.0000000 magnetization 

 Free energy of the ion-electron system (eV)
  ---------------------------------------------------
  alpha Z        PSCENC =         0.00061489
  Ewald energy   TEWEN  =        16.40695457
  -Hartree energ DENC   =       -25.57839697
  -exchange      EXHF   =         0.00000000
  -V(xc)+E(xc)   XCENC  =         4.21562451
  PAW double counting   =         3.83046721       -3.86378238
  entropy T*S    EENTRO =        -0.00000000
  eigenvalues    EBANDS =       -28.79481974
  atomic energy  EATOM  =        25.79065728
  ---------------------------------------------------
  free energy    TOTEN  =        -7.99268064 eV

  energy without entropy =       -7.99268064  energy(sigma->0) =       -7.99268064


--------------------------------------------------------------------------------------------------------




--------------------------------------- Iteration      1(   4)  ---------------------------------------


    TRIAL :  cpu time      1.4277: real time      1.4239
    CORREC:  cpu time      0.0004: real time      0.0004
    --------------------------------------------
      LOOP:  cpu time      1.4297: real time      1.4402

 eigenvalue-minimisations  :   128
 total energy-change (2. order) :-0.1805532E-03  (-0.1805532E-03)
 number of electron       2.0000000 magnetization 
 augmentation part        2.0000000 magnetization 

 Free energy of the ion-electron system (eV)
  ---------------------------------------------------
  alpha Z        PSCENC =         0.00061489
  Ewald energy   TEWEN  =        16.40695457
  -Hartree energ DENC   =       -25.57839697
  -exchange      EXHF   =         0.00000000
  -V(xc)+E(xc)   XCENC  =         4.21562451
  PAW double counting   =         3.83046721       -3.86378238
  entropy T*S    EENTRO =        -0.00000000
  eigenvalues    EBANDS =       -28.79500029
  atomic energy  EATOM  =        25.79065728
  ---------------------------------------------------
  free energy    TOTEN  =        -7.99286119 eV

  energy without entropy =       -7.99286119  energy(sigma->0) =       -7.99286119


--------------------------------------------------------------------------------------------------------




--------------------------------------- Iteration      1(   5)  ---------------------------------------


    TRIAL :  cpu time      2.4997: real time      2.4942
    CORREC:  cpu time      0.0003: real time      0.0004
    CHARGE:  cpu time      0.4006: real time      0.4013
    --------------------------------------------
      LOOP:  cpu time      2.9022: real time      2.9111

 eigenvalue-minimisations  :   256
 total energy-change (2. order) :-0.9246927E-06  (-0.9246700E-06)
 number of electron       1.9999998 magnetization 
 augmentation part        0.0501629 magnetization 

 Free energy of the ion-electron system (eV)
  ---------------------------------------------------
  alpha Z        PSCENC =         0.00061489
  Ewald energy   TEWEN  =        16.40695457
  -Hartree energ DENC   =       -25.57839697
  -exchange      EXHF   =         0.00000000
  -V(xc)+E(xc)   XCENC  =         4.21562451
  PAW double counting   =         3.83046721       -3.86378238
  entropy T*S    EENTRO =        -0.00000000
  eigenvalues    EBANDS =       -28.79500122
  atomic energy  EATOM  =        25.79065728
  ---------------------------------------------------
  free energy    TOTEN  =        -7.99286211 eV

  energy without entropy =       -7.99286211  energy(sigma->0) =       -7.99286211


--------------------------------------------------------------------------------------------------------




--------------------------------------- Iteration      1(   6)  ---------------------------------------


    POTLOK:  cpu time     14.9577: real time     14.9668
    SETDIJ:  cpu time      0.0075: real time      0.0075
    TRIAL :  cpu time      1.0362: real time      1.0400
    CORREC:  cpu time     16.3774: real time     16.3858
    CHARGE:  cpu time      0.3575: real time      0.3573
    --------------------------------------------
      LOOP:  cpu time     32.7392: real time     32.7736

 eigenvalue-minimisations  :     0
 total energy-change (2. order) : 0.1093124E+01  (-0.2204147E+00)
 number of electron       1.9999999 magnetization 
 augmentation part        0.0451030 magnetization 

 Free energy of the ion-electron system (eV)
  ---------------------------------------------------
  alpha Z        PSCENC =         0.00061489
  Ewald energy   TEWEN  =        16.40695457
  -Hartree energ DENC   =       -35.63432430
  -exchange      EXHF   =         0.00000000
  -V(xc)+E(xc)   XCENC  =         5.64812004
  PAW double counting   =        26.66208869      -26.74042715
  entropy T*S    EENTRO =        -0.00000000
  eigenvalues    EBANDS =       -19.03342213
  atomic energy  EATOM  =        25.79065728
  ---------------------------------------------------
  free energy    TOTEN  =        -6.89973811 eV

  energy without entropy =       -6.89973811  energy(sigma->0) =       -6.89973811


--------------------------------------------------------------------------------------------------------




--------------------------------------- Iteration      1(   7)  ---------------------------------------


    POTLOK:  cpu time     15.7168: real time     15.7243
    SETDIJ:  cpu time      0.0079: real time      0.0078
    TRIAL :  cpu time      0.9803: real time      0.9804
    CORREC:  cpu time     16.3256: real time     16.3339
    CHARGE:  cpu time      0.3623: real time      0.3623
    --------------------------------------------
      LOOP:  cpu time     33.3974: real time     33.4283

 eigenvalue-minimisations  :     0
 total energy-change (2. order) :-0.2201345E+00  (-0.2799966E-01)
 number of electron       1.9999999 magnetization 
 augmentation part        0.0441347 magnetization 

 Free energy of the ion-electron system (eV)
  ---------------------------------------------------
  alpha Z        PSCENC =         0.00061489
  Ewald energy   TEWEN  =        16.40695457
  -Hartree energ DENC   =       -33.40524806
  -exchange      EXHF   =         0.00000000
  -V(xc)+E(xc)   XCENC  =         5.31540613
  PAW double counting   =        23.83787798      -23.90404936
  entropy T*S    EENTRO =        -0.00000000
  eigenvalues    EBANDS =       -21.16208599
  atomic energy  EATOM  =        25.79065728
  ---------------------------------------------------
  free energy    TOTEN  =        -7.11987256 eV

  energy without entropy =       -7.11987256  energy(sigma->0) =       -7.11987256


--------------------------------------------------------------------------------------------------------




--------------------------------------- Iteration      1(   8)  ---------------------------------------


    POTLOK:  cpu time     15.7575: real time     15.7665
    SETDIJ:  cpu time      0.0076: real time      0.0076
    TRIAL :  cpu time      0.9835: real time      0.9841
    CORREC:  cpu time     16.2876: real time     16.2968
    CHARGE:  cpu time      0.3544: real time      0.3543
    --------------------------------------------
      LOOP:  cpu time     33.3941: real time     33.4275

 eigenvalue-minimisations  :     0
 total energy-change (2. order) :-0.2821944E-01  (-0.1692318E-01)
 number of electron       1.9999999 magnetization 
 augmentation part        0.0436833 magnetization 

 Free energy of the ion-electron system (eV)
  ---------------------------------------------------
  alpha Z        PSCENC =         0.00061489
  Ewald energy   TEWEN  =        16.40695457
  -Hartree energ DENC   =       -33.18266939
  -exchange      EXHF   =         0.00000000
  -V(xc)+E(xc)   XCENC  =         5.28725223
  PAW double counting   =        23.81780533      -23.88198639
  entropy T*S    EENTRO =        -0.00000000
  eigenvalues    EBANDS =       -21.38672052
  atomic energy  EATOM  =        25.79065728
  ---------------------------------------------------
  free energy    TOTEN  =        -7.14809200 eV

  energy without entropy =       -7.14809200  energy(sigma->0) =       -7.14809200


--------------------------------------------------------------------------------------------------------




--------------------------------------- Iteration      1(   9)  ---------------------------------------


    POTLOK:  cpu time     14.9674: real time     14.9736
    SETDIJ:  cpu time      0.0078: real time      0.0078
    TRIAL :  cpu time      0.9755: real time      0.9742
    CORREC:  cpu time     15.6324: real time     15.6398
    CHARGE:  cpu time      0.3643: real time      0.3650
    --------------------------------------------
      LOOP:  cpu time     31.9497: real time     31.9773

 eigenvalue-minimisations  :     0
 total energy-change (2. order) :-0.1576514E-01  (-0.2794862E-02)
 number of electron       1.9999999 magnetization 
 augmentation part        0.0439037 magnetization 

 Free energy of the ion-electron system (eV)
  ---------------------------------------------------
  alpha Z        PSCENC =         0.00061489
  Ewald energy   TEWEN  =        16.40695457
  -Hartree energ DENC   =       -32.88270916
  -exchange      EXHF   =         0.00000000
  -V(xc)+E(xc)   XCENC  =         5.24818854
  PAW double counting   =        23.47537687      -23.53836673
  entropy T*S    EENTRO =        -0.00000000
  eigenvalues    EBANDS =       -21.66457340
  atomic energy  EATOM  =        25.79065728
  ---------------------------------------------------
  free energy    TOTEN  =        -7.16385714 eV

  energy without entropy =       -7.16385714  energy(sigma->0) =       -7.16385714


--------------------------------------------------------------------------------------------------------




--------------------------------------- Iteration      1(  10)  ---------------------------------------


    POTLOK:  cpu time     15.0921: real time     15.1005
    SETDIJ:  cpu time      0.0072: real time      0.0072
    TRIAL :  cpu time      0.9852: real time      0.9838
    CORREC:  cpu time     15.5856: real time     15.5927
    CHARGE:  cpu time      0.3609: real time      0.3624
    --------------------------------------------
      LOOP:  cpu time     32.0348: real time     32.0659

 eigenvalue-minimisations  :     0
 total energy-change (2. order) :-0.2784108E-02  (-0.7347132E-03)
 number of electron       1.9999999 magnetization 
 augmentation part        0.0441136 magnetization 

 Free energy of the ion-electron system (eV)
  ---------------------------------------------------
  alpha Z        PSCENC =         0.00061489
  Ewald energy   TEWEN  =        16.40695457
  -Hartree energ DENC   =       -32.86601159
  -exchange      EXHF   =         0.00000000
  -V(xc)+E(xc)   XCENC  =         5.24563660
  PAW double counting   =        23.33225635      -23.39557797
  entropy T*S    EENTRO =        -0.00000000
  eigenvalues    EBANDS =       -21.68117137
  atomic energy  EATOM  =        25.79065728
  ---------------------------------------------------
  free energy    TOTEN  =        -7.16664124 eV

  energy without entropy =       -7.16664124  energy(sigma->0) =       -7.16664124


--------------------------------------------------------------------------------------------------------




--------------------------------------- Iteration      1(  11)  ---------------------------------------


    POTLOK:  cpu time     14.9651: real time     14.9714
    SETDIJ:  cpu time      0.0079: real time      0.0078
    TRIAL :  cpu time      0.9766: real time      0.9755
    CORREC:  cpu time     15.5575: real time     15.5649
    CHARGE:  cpu time      0.3572: real time      0.3570
    --------------------------------------------
      LOOP:  cpu time     31.8807: real time     31.8932

 eigenvalue-minimisations  :     0
 total energy-change (2. order) :-0.7356566E-03  (-0.2307917E-03)
 number of electron       1.9999999 magnetization 
 augmentation part        0.0441718 magnetization 

 Free energy of the ion-electron system (eV)
  ---------------------------------------------------
  alpha Z        PSCENC =         0.00061489
  Ewald energy   TEWEN  =        16.40695457
  -Hartree energ DENC   =       -32.89856436
  -exchange      EXHF   =         0.00000000
  -V(xc)+E(xc)   XCENC  =         5.24876229
  PAW double counting   =        23.28575004      -23.34947092
  entropy T*S    EENTRO =        -0.00000000
  eigenvalues    EBANDS =       -21.65208069
  atomic energy  EATOM  =        25.79065728
  ---------------------------------------------------
  free energy    TOTEN  =        -7.16737690 eV

  energy without entropy =       -7.16737690  energy(sigma->0) =       -7.16737690


--------------------------------------------------------------------------------------------------------




--------------------------------------- Iteration      1(  12)  ---------------------------------------


    POTLOK:  cpu time     14.9759: real time     14.9845
    SETDIJ:  cpu time      0.0073: real time      0.0073
    TRIAL :  cpu time      0.9765: real time      0.9759
    CORREC:  cpu time     15.5302: real time     15.5371
    CHARGE:  cpu time      0.3553: real time      0.3560
    --------------------------------------------
      LOOP:  cpu time     31.8620: real time     31.8778

 eigenvalue-minimisations  :     0
 total energy-change (2. order) :-0.2311135E-03  (-0.1077800E-03)
 number of electron       1.9999999 magnetization 
 augmentation part        0.0441688 magnetization 

 Free energy of the ion-electron system (eV)
  ---------------------------------------------------
  alpha Z        PSCENC =         0.00061489
  Ewald energy   TEWEN  =        16.40695457
  -Hartree energ DENC   =       -32.91363923
  -exchange      EXHF   =         0.00000000
  -V(xc)+E(xc)   XCENC  =         5.24988855
  PAW double counting   =        23.28262950      -23.34648813
  entropy T*S    EENTRO =        -0.00000000
  eigenvalues    EBANDS =       -21.63822544
  atomic energy  EATOM  =        25.79065728
  ---------------------------------------------------
  free energy    TOTEN  =        -7.16760801 eV

  energy without entropy =       -7.16760801  energy(sigma->0) =       -7.16760801


--------------------------------------------------------------------------------------------------------




--------------------------------------- Iteration      1(  13)  ---------------------------------------


    POTLOK:  cpu time     14.8919: real time     14.8985
    SETDIJ:  cpu time      0.0073: real time      0.0073
    TRIAL :  cpu time      0.9764: real time      0.9760
    CORREC:  cpu time     15.4895: real time     15.4970
    CHARGE:  cpu time      0.3623: real time      0.3628
    --------------------------------------------
      LOOP:  cpu time     31.7359: real time     31.7649

 eigenvalue-minimisations  :     0
 total energy-change (2. order) :-0.1082800E-03  (-0.4563146E-04)
 number of electron       1.9999999 magnetization 
 augmentation part        0.0441469 magnetization 

 Free energy of the ion-electron system (eV)
  ---------------------------------------------------
  alpha Z        PSCENC =         0.00061489
  Ewald energy   TEWEN  =        16.40695457
  -Hartree energ DENC   =       -32.93070267
  -exchange      EXHF   =         0.00000000
  -V(xc)+E(xc)   XCENC  =         5.25213081
  PAW double counting   =        23.32501330      -23.38891675
  entropy T*S    EENTRO =        -0.00000000
  eigenvalues    EBANDS =       -21.62346772
  atomic energy  EATOM  =        25.79065728
  ---------------------------------------------------
  free energy    TOTEN  =        -7.16771629 eV

  energy without entropy =       -7.16771629  energy(sigma->0) =       -7.16771629


--------------------------------------------------------------------------------------------------------




--------------------------------------- Iteration      1(  14)  ---------------------------------------


    POTLOK:  cpu time     14.9009: real time     14.9102
    SETDIJ:  cpu time      0.0072: real time      0.0072
    TRIAL :  cpu time      0.9782: real time      0.9768
    CORREC:  cpu time     15.4947: real time     15.4997
    CHARGE:  cpu time      0.3552: real time      0.3551
    --------------------------------------------
      LOOP:  cpu time     31.7530: real time     31.7661

 eigenvalue-minimisations  :     0
 total energy-change (2. order) :-0.4570564E-04  (-0.1274482E-04)
 number of electron       1.9999999 magnetization 
 augmentation part        0.0441368 magnetization 

 Free energy of the ion-electron system (eV)
  ---------------------------------------------------
  alpha Z        PSCENC =         0.00061489
  Ewald energy   TEWEN  =        16.40695457
  -Hartree energ DENC   =       -32.93913723
  -exchange      EXHF   =         0.00000000
  -V(xc)+E(xc)   XCENC  =         5.25360384
  PAW double counting   =        23.36101073      -23.42490115
  entropy T*S    EENTRO =        -0.00000000
  eigenvalues    EBANDS =       -21.61656493
  atomic energy  EATOM  =        25.79065728
  ---------------------------------------------------
  free energy    TOTEN  =        -7.16776200 eV

  energy without entropy =       -7.16776200  energy(sigma->0) =       -7.16776200


--------------------------------------------------------------------------------------------------------




--------------------------------------- Iteration      1(  15)  ---------------------------------------


    POTLOK:  cpu time     14.8499: real time     14.8572
    SETDIJ:  cpu time      0.0080: real time      0.0080
    TRIAL :  cpu time      0.9834: real time      0.9830
    CORREC:  cpu time     15.5296: real time     15.5376
    CHARGE:  cpu time      0.3579: real time      0.3587
    --------------------------------------------
      LOOP:  cpu time     31.7315: real time     31.7620

 eigenvalue-minimisations  :     0
 total energy-change (2. order) :-0.1274172E-04  (-0.3002135E-05)
 number of electron       1.9999999 magnetization 
 augmentation part        0.0441408 magnetization 

 Free energy of the ion-electron system (eV)
  ---------------------------------------------------
  alpha Z        PSCENC =         0.00061489
  Ewald energy   TEWEN  =        16.40695457
  -Hartree energ DENC   =       -32.93913070
  -exchange      EXHF   =         0.00000000
  -V(xc)+E(xc)   XCENC  =         5.25376558
  PAW double counting   =        23.36699832      -23.43086791
  entropy T*S    EENTRO =        -0.00000000
  eigenvalues    EBANDS =       -21.61676677
  atomic energy  EATOM  =        25.79065728
  ---------------------------------------------------
  free energy    TOTEN  =        -7.16777474 eV

  energy without entropy =       -7.16777474  energy(sigma->0) =       -7.16777474


--------------------------------------------------------------------------------------------------------




--------------------------------------- Iteration      1(  16)  ---------------------------------------


    POTLOK:  cpu time     14.9114: real time     14.9174
    SETDIJ:  cpu time      0.0081: real time      0.0081
    TRIAL :  cpu time      0.9848: real time      0.9831
    CORREC:  cpu time     15.5691: real time     15.5779
    EDDIAG:  cpu time      0.3606: real time      0.3646
    CHARGE:  cpu time      0.3497: real time      0.3500
    --------------------------------------------
      LOOP:  cpu time     32.1858: real time     32.2182

 eigenvalue-minimisations  :     0
 total energy-change (2. order) :-0.3000453E-05  (-0.1133652E-05)
 number of electron       1.9999999 magnetization 
 augmentation part        0.0441453 magnetization 

 Free energy of the ion-electron system (eV)
  ---------------------------------------------------
  alpha Z        PSCENC =         0.00061489
  Ewald energy   TEWEN  =        16.40695457
  -Hartree energ DENC   =       -32.93962869
  -exchange      EXHF   =         0.00000000
  -V(xc)+E(xc)   XCENC  =         5.25388024
  PAW double counting   =        23.36374711      -23.42761581
  entropy T*S    EENTRO =        -0.00000000
  eigenvalues    EBANDS =       -21.61638733
  atomic energy  EATOM  =        25.79065728
  ---------------------------------------------------
  free energy    TOTEN  =        -7.16777774 eV

  energy without entropy =       -7.16777774  energy(sigma->0) =       -7.16777774


--------------------------------------------------------------------------------------------------------


  average scaling for gradient   1.7046


 average (electrostatic) potential at core
  the test charge radii are     0.5201
  (the norm of the test charge is              1.0000)
       1 -42.9943       2 -42.9941
 
 
 
 E-fermi : -10.7456     XC(G=0):  -0.0365     alpha+bet : -0.0035

 Fermi energy:       -10.7455733755

 k-point     1 :       0.0000    0.0000    0.0000
  band No.  band energies     occupation 
      1     -10.8083      2.00000
      2      -0.0740      0.00000
      3      -0.0721      0.00000
      4       0.0757      0.00000
      5       0.1878      0.00000
      6       0.2080      0.00000
      7       0.2237      0.00000
      8       0.2484      0.00000
      9       0.2785      0.00000
     10       0.3624      0.00000
     11       0.3677      0.00000
     12       0.3909      0.00000
     13       0.4273      0.00000
     14       0.4412      0.00000
     15       0.4436      0.00000
     16       0.4606      0.00000
     17       0.4881      0.00000
     18       0.5162      0.00000
     19       0.5243      0.00000
     20       0.5336      0.00000
     21       0.5612      0.00000
     22       0.6390      0.00000
     23       0.6537      0.00000
     24       0.6583      0.00000
     25       0.6819      0.00000
     26       0.6909      0.00000
     27       0.7260      0.00000
     28       0.7271      0.00000
     29       0.7277      0.00000
     30       0.7310      0.00000
     31       0.7572      0.00000
     32       0.8584      0.00000
     33       0.8924      0.00000
     34       0.8953      0.00000
     35       0.9248      0.00000
     36       0.9452      0.00000
     37       0.9491      0.00000
     38       0.9576      0.00000
     39       0.9704      0.00000
     40       1.0244      0.00000
     41       1.0255      0.00000
     42       1.0476      0.00000
     43       1.1130      0.00000
     44       1.1691      0.00000
     45       1.1983      0.00000
     46       1.2124      0.00000
     47       1.2174      0.00000
     48       1.2200      0.00000
     49       1.2208      0.00000
     50       1.2280      0.00000
     51       1.2297      0.00000
     52       1.2316      0.00000
     53       1.2319      0.00000
     54       1.2342      0.00000
     55       1.2744      0.00000
     56       1.2949      0.00000
     57       1.3086      0.00000
     58       1.3369      0.00000
     59       1.3546      0.00000
     60       1.3634      0.00000
     61       1.3634      0.00000
     62       1.3659      0.00000
     63       1.3749      0.00000
     64       1.4244      0.00000


--------------------------------------------------------------------------------------------------------


 soft charge-density along one line, spin component           1
         0         1         2         3         4         5         6         7         8         9
 total charge-density along one line
 
 pseudopotential strength for first ion, spin component:           1
 -2.363  -4.075   0.000  -0.002  -0.000
 -4.075  -6.943   0.000  -0.006  -0.000
  0.000   0.000  -0.347  -0.000   0.000
 -0.002  -0.006  -0.000  -0.341   0.000
 -0.000  -0.000   0.000   0.000  -0.346
 total augmentation occupancy for first ion, spin component:           1
  2.772  -0.338   0.000   0.383  -0.000
 -0.338   0.041  -0.000  -0.047   0.000
  0.000  -0.000   0.000   0.000  -0.000
  0.383  -0.047   0.000   0.053  -0.000
 -0.000   0.000  -0.000  -0.000   0.000


------------------------ aborting loop because EDIFF is reached ----------------------------------------


    FORLOC:  cpu time      0.0230: real time      0.0230
    FORNL :  cpu time      0.4216: real time      0.4215
    STRESS:  cpu time      1.0848: real time      1.0849
    OFIELD:  cpu time      0.0021: real time      0.0021

  FORCE on cell =-STRESS in cart. coord.  units (eV):
  Direction    XX          YY          ZZ          XY          YZ          ZX
  --------------------------------------------------------------------------------------
  Alpha Z     0.00061     0.00061     0.00061
  Ewald      -0.83795    -0.64467    17.88956     0.00000     0.00000     0.00000
  Hartree    10.43332    10.62566    11.88014    -0.00000    -0.00000     0.00000
  E(xc)      -6.59347    -6.59335    -6.07094    -0.00000     0.00000    -0.00000
  Local     -19.43464   -19.82022   -31.56712     0.00000     0.00000    -0.00000
  n-local    -5.55047    -5.55083    -6.60398    -0.00000     0.00000    -0.00000
  augment     0.31110     0.31091     0.23459     0.00000    -0.00000     0.00000
  Kinetic    21.62871    21.62866    14.17965     0.00000     0.00000    -0.00000
  Fock        0.00000     0.00000     0.00000     0.00000     0.00000     0.00000
  -------------------------------------------------------------------------------------
  Total      -0.04278    -0.04323    -0.05749     0.00000    -0.00000     0.00000
  in kB      -0.00433    -0.00437    -0.00581     0.00000    -0.00000     0.00000
  external pressure =       -0.00 kB  Pullay stress =        0.00 kB


 VOLUME and BASIS-vectors are now :
 -----------------------------------------------------------------------------
  energy-cutoff  :      500.00
  volume of cell :    15847.84
      direct lattice vectors                 reciprocal lattice vectors
    23.670780182  0.000000000  0.000000000     0.042246178  0.000000000  0.000000000
     0.000000000 22.317026138  0.000000000     0.000000000  0.044808838  0.000000000
     0.000000000  0.000000000 30.000000000     0.000000000  0.000000000  0.033333333

  length of vectors
    23.670780182 22.317026138 30.000000000     0.042246178  0.044808838  0.033333333


 FORCES acting on ions:
    Electron-Ion                     Ewald-Force                    Non-Local-Force
 -----------------------------------------------------------------------------------------------
   0.317E-07 -.575E-07 0.212E+02   -.297E-18 0.418E-18 -.266E+02   -.614E-06 0.664E-06 0.544E+01
   0.297E-07 -.622E-07 -.212E+02   -.862E-19 0.285E-18 0.266E+02   -.610E-06 0.610E-06 -.544E+01
 -----------------------------------------------------------------------------------------------
   0.614E-07 -.120E-06 0.572E-04   -.383E-18 0.703E-18 0.000E+00   -.122E-05 0.127E-05 -.241E-03
 
 
 POSITION                                       TOTAL-FORCE (eV/Angst)
 -----------------------------------------------------------------------------------
     11.83540     11.15850     14.98670        -0.000000      0.000000     -0.000511
     11.83540     11.15850     15.72230         0.000000     -0.000000      0.000511
 -----------------------------------------------------------------------------------
    total drift:                               -0.000001      0.000001     -0.000184


--------------------------------------------------------------------------------------------------------



  FREE ENERGIE OF THE ION-ELECTRON SYSTEM (eV)
  ---------------------------------------------------
  free  energy   TOTEN  =        -7.16777774 eV

  energy  without entropy=       -7.16777774  energy(sigma->0) =       -7.16777774
 


--------------------------------------------------------------------------------------------------------


 BEEFens 2000 ensemble energies
             -0.163541489760108E+01
              0.105533088448382E+00
             -0.246868627658982E+00
              0.105006001106552E+01
             -0.593318401696475E+00
             -0.283277176538434E+00
             -0.120084701773617E+01
             -0.245145454886647E+01
             -0.679227391297038E+00
             -0.895829896887419E+00
             -0.725798698948157E+00
              0.482927530778210E-01
             -0.330259717082417E-01
             -0.463452630715651E-01
              0.436175311459959E-01
              0.114833097518713E+01
             -0.513576331093257E+00
             -0.101911754907684E+00
              0.773930457751637E+00
             -0.266883596758886E+01
              0.123643550456443E+01
             -0.479428831326846E+00
             -0.189943760907177E+00
             -0.228735613437766E+00
              0.158852212411212E+00
             -0.955233515311051E-01
              0.229561180397065E+01
             -0.431564377701683E+00
             -0.576412983378365E-01
             -0.132404539756239E+01
              0.172303373448417E+01
              0.110598606860219E-01
             -0.108237113344495E+01
              0.271118873718570E+00
             -0.756084536274990E-01
              0.817788435702020E+00
             -0.491847733556305E-02
             -0.911800334810700E-01
              0.109118518851723E+01
             -0.242877447073052E+01
              0.140911766349736E+01
              0.164736847781260E+00
             -0.361978292389521E+00
             -0.511550062265141E+00
              0.376379187937337E+00
             -0.331664345377726E+00
              0.134982785698469E+01
              0.893105028180416E+00
             -0.489181742968642E+00
             -0.831313561791195E+00
             -0.806395344505113E+00
             -0.100948503113932E+01
              0.823002012607621E+00
             -0.123055747558502E+01
              0.343599084829712E+00
              0.140879731098585E+01
              0.180153969865662E+01
              0.808918098890099E+00
              0.411905428500588E+00
              0.788730543402295E+00
              0.240415446775051E+01
              0.460885677668019E+00
             -0.136270673211346E+01
             -0.280731995507915E+00
             -0.873580611620194E+00
              0.148675369932853E+01
             -0.177300999842918E+01
             -0.155055269897846E+01
             -0.970152041532025E+00
             -0.516930598073003E+00
             -0.818510116934957E+00
              0.768559060564624E+00
              0.562528696608741E+00
              0.366724819049044E+00
             -0.108254343324149E+01
             -0.815414134217898E+00
             -0.138091880458478E+01
              0.800520693433004E+00
             -0.836009852820510E+00
              0.970889236951360E+00
             -0.288276375606354E+00
             -0.786815170625000E+00
             -0.111316685074857E+01
             -0.332755939175075E+00
             -0.511582905837756E+00
             -0.279478428613168E+00
              0.102569490828334E+01
              0.195348049128836E+01
             -0.103933585956829E+01
             -0.180577879986481E+01
             -0.444961813894350E+00
              0.267966372938230E+01
             -0.142999895759958E+01
              0.778799758244338E+00
             -0.810719318470507E-01
             -0.149217212734537E+01
              0.767447361875056E+00
              0.644630247527359E+00
             -0.295075874833425E+00
              0.689871810977971E+00
             -0.746731585347581E+00
             -0.146931224167168E+01
              0.263987906416999E+01
              0.100851264047578E+01
              0.406797296361842E+00
              0.114193353049559E+00
              0.313028126296056E+00
              0.198498319704930E+01
             -0.779842766407164E+00
              0.131681654861853E-01
             -0.346842199135965E+01
              0.520377853899451E+00
             -0.165026937314272E+01
              0.262190971208796E+00
              0.479327332558239E+00
             -0.803768696257730E+00
             -0.126542739138468E+01
              0.990006712455109E-01
             -0.855204298024624E+00
              0.112837253427124E+01
             -0.933395273238545E+00
             -0.358915433057763E+00
             -0.101863471690618E+01
              0.102977672793138E+00
              0.140287600323815E+00
              0.534832342056981E+00
              0.918456832731440E-01
             -0.218643293940358E+00
              0.168386443702775E+01
              0.226335777245175E+01
              0.125695062369461E+01
              0.145982435366557E+01
             -0.424091236396744E+00
              0.674355645416469E-02
              0.112532128735400E+01
              0.262805587472892E+00
             -0.187155371011248E+01
             -0.122442206487245E+01
             -0.126262752153344E+01
             -0.782772069162577E+00
              0.643589521740903E+00
             -0.300882360397362E+01
             -0.238157157556470E+00
              0.105571235229723E+01
             -0.117027438437312E+01
             -0.842155229139438E+00
              0.131166549737093E+01
              0.140052683037087E+01
             -0.679283178684337E+00
              0.996310158373777E+00
             -0.669849950177914E+00
              0.101104811395482E+01
              0.224940081998005E+00
              0.226371340440391E+00
             -0.201446674353610E+01
             -0.118040708953098E+01
             -0.267306136777441E+00
             -0.354076212554874E+00
             -0.956884006573482E+00
              0.291305547949003E+01
             -0.593663277722456E-01
             -0.647321221451953E+00
              0.933995175142025E+00
             -0.993388440466898E+00
             -0.970102754817201E+00
              0.793389428862840E+00
              0.240551076732980E+00
              0.115341569509242E+00
              0.389855060174250E+00
             -0.270405021835317E+00
              0.148665102390884E+00
              0.142137222231184E+01
             -0.604613660490444E+00
              0.565317627907268E+00
              0.219146322452744E+01
              0.749966930638289E+00
              0.105544574134719E+00
             -0.445730337624396E+00
              0.366622073404359E+01
             -0.741653448803715E+00
              0.112697454299072E+01
              0.850145226658363E+00
              0.628245556398252E+00
              0.238185946853793E+01
              0.103241045923912E+01
             -0.189956517881753E-01
              0.522138745031761E+00
              0.138199281332062E+01
              0.770349684653676E+00
             -0.150240686338986E+01
              0.245197158947279E+01
             -0.230571387633232E+01
             -0.199768048676314E+00
              0.132793243256454E+01
              0.437765336787643E+00
              0.371638747788587E-01
              0.602017701684285E+00
              0.345654185108299E+00
              0.619296261223850E+00
             -0.147176044459450E+01
              0.116056166702331E+00
             -0.520501746708455E+00
              0.604149475694369E-01
             -0.462054526855304E-01
             -0.424833547296726E+00
             -0.173059369136384E+00
              0.212855808856674E+01
             -0.127199009430670E-01
             -0.764931442996359E+00
             -0.583623239038692E-01
              0.365190753891542E+00
             -0.158543697066626E+01
             -0.145105328901659E+01
             -0.736140003845204E+00
             -0.153877007359545E+01
             -0.420383956657082E+00
             -0.947893365933443E+00
              0.335349282937677E+00
             -0.408480323882454E-02
             -0.311842706594990E+00
             -0.169647709492297E+00
              0.168677602312143E+00
             -0.479871430040709E+00
              0.158969039318032E+01
             -0.218937455859702E+01
             -0.175144858110977E+00
             -0.347047177771617E+00
              0.465763137912896E+00
              0.541975720149763E+00
             -0.134442881251116E+01
             -0.194423674830109E+00
              0.115690844861957E+01
             -0.585156002583858E+00
              0.250896341176792E+00
              0.897425466892397E+00
              0.673562259808911E-01
              0.283692115572635E+01
             -0.129617473597211E+00
             -0.104109624408750E+01
             -0.224312389373101E+00
             -0.899946735197818E+00
              0.107302457970629E+01
             -0.147637126032765E+01
              0.573328787399229E+00
              0.807756121288050E+00
             -0.313851420906526E+00
              0.288417615658278E+01
              0.296871834812185E+01
             -0.204333310315091E+01
              0.142402376494277E+01
              0.630174871358411E+00
             -0.136265465812588E+01
              0.548840624216059E+00
              0.114016514822279E+01
              0.117855899968310E+01
              0.183306096034304E+00
              0.773769795714873E+00
              0.187028903574898E+01
             -0.588383059088164E+00
              0.140149882578644E+00
              0.137193421264055E+01
             -0.801899174823823E+00
             -0.696649212275386E+00
              0.161598655468983E+01
              0.848894529806395E+00
              0.187318833358725E+01
              0.103439791096931E+01
              0.430632402716952E+00
              0.431433210133014E+00
              0.119084546830711E+01
             -0.130962139072952E+01
              0.135777466141815E+00
              0.803604497554393E+00
              0.425599605630254E-01
              0.682239960414027E+00
             -0.169193758121129E+01
              0.854766096527765E+00
             -0.103344498911280E+01
             -0.782733035003580E+00
              0.512020637395586E+00
             -0.230855845230349E+00
              0.154466001450711E+01
             -0.342996356540046E+00
              0.594861466206257E+00
              0.692307827202860E+00
              0.188625812047174E+01
              0.130968114472459E+01
              0.141292927755477E+01
             -0.873690004830294E-01
             -0.316651775471061E+00
             -0.746830708466929E+00
              0.212694951198277E+01
              0.209973087140371E+01
              0.849731476040721E+00
             -0.748815829587976E+00
              0.120774606026903E+01
              0.717887625559666E-01
              0.456364813312098E+00
              0.184605917648605E+01
             -0.182266903417254E+00
             -0.317432953114491E+00
             -0.694736557047214E+00
             -0.165371676027004E+01
              0.241539314125455E+01
              0.125702431741284E+01
             -0.169222902059460E+01
             -0.540789239496664E+00
              0.473117461364574E+00
             -0.354944092902880E+00
              0.155537725844677E+01
              0.462084579155038E+00
              0.197699931306908E+01
              0.623183649267885E+00
             -0.449019521325842E+00
              0.272344925909704E+00
             -0.199283267002788E+00
             -0.484953223528732E+00
              0.478117876554720E+00
              0.503111417013283E+00
              0.223211008437162E+01
              0.176561024732869E+01
              0.154506046547888E+01
              0.184914351186369E+01
              0.305454927557380E+00
             -0.783861853950333E+00
              0.287772216062153E+00
             -0.792595073916378E+00
             -0.142369992001657E+01
             -0.127174421064371E+01
             -0.815013359387756E+00
             -0.280914592891050E+01
             -0.101344936015482E+01
             -0.206963092725009E+01
              0.394024969287311E+00
             -0.113708597379334E+01
              0.141534409238125E+01
             -0.236237775629161E+01
             -0.733257383434812E+00
              0.857232064386239E+00
              0.498829793885479E+00
             -0.220051472426652E+01
              0.119546099957289E+01
             -0.735926590110087E+00
              0.139357785727175E+01
             -0.699552863348047E+00
             -0.171510838172895E+01
              0.495026064762163E+00
             -0.142593580614664E+01
              0.884053418610975E-03
             -0.897937500421595E-01
              0.981533423904408E+00
              0.311239103601690E+01
             -0.107317030516012E+01
             -0.908120205954254E+00
             -0.406088524645391E+00
             -0.942115664445593E-01
             -0.187867217741992E+01
             -0.151252215521380E+01
              0.136295445380284E+01
             -0.302345927206963E+00
              0.555322739461026E+00
             -0.117412266641405E+01
             -0.276535195591578E+00
             -0.110128476425455E+01
              0.107740746279277E+01
              0.356413592422941E+00
             -0.721223054115563E+00
             -0.417033819621943E+00
              0.405571493310035E+00
             -0.152297427679827E+00
              0.728319222227778E+00
             -0.745040413495055E+00
              0.314886211130418E+00
              0.868755070102478E+00
              0.259274387792733E+00
             -0.683297953712392E+00
              0.390015641950964E+01
              0.155336595966792E+01
              0.263615079963681E+00
              0.897991708493127E-01
             -0.147165209088379E+01
              0.830030410932918E+00
             -0.182397189587919E+01
             -0.936328648612454E+00
             -0.167563388251575E+01
             -0.468354169013190E+00
              0.157194702614295E+01
             -0.150196464738775E+01
              0.663983264278895E+00
             -0.211838973263742E+00
             -0.254079718807607E-01
             -0.707875528356534E+00
             -0.995665388576370E+00
             -0.436033493700419E+00
             -0.735884434054602E+00
             -0.459553373102585E+00
             -0.828799336497875E+00
              0.100084596938292E-01
             -0.665264804998799E+00
             -0.108295397449059E+01
              0.581646971445974E+00
             -0.156013383829782E+00
              0.627270906630097E+00
              0.276379436856309E+00
             -0.183604616859996E+01
             -0.121465163811030E+01
             -0.139673727093071E+01
              0.649312965649028E+00
             -0.226111826552577E+00
             -0.142634010844170E+01
              0.142386344352758E+01
             -0.113171368237018E+01
              0.137664227349445E+01
             -0.741805224945316E+00
             -0.121707426574132E+01
              0.588778382819651E+00
             -0.178956970766019E+01
             -0.723635765351254E+00
              0.159835738116821E+01
              0.701577463812984E+00
             -0.100220674376525E+01
              0.156091307977560E+01
             -0.327172632238558E+00
             -0.828695551749306E+00
             -0.721263949684651E+00
             -0.144373234387016E+01
              0.687288864623275E+00
             -0.227069615112662E+01
             -0.188477957761950E+01
             -0.302625059262587E-01
             -0.715358354760215E+00
             -0.165507981303245E+01
              0.190217491103505E+01
              0.350268262461245E+01
             -0.382144816819185E+00
             -0.534243496947768E-01
             -0.160377906262353E+01
              0.165441283155814E+01
              0.518883227961332E+00
             -0.405096839173341E+00
             -0.953111860083328E+00
              0.196140759983546E+00
             -0.141783184170690E+01
             -0.806531342777115E-01
             -0.205575594065087E+01
              0.588947543247414E+00
              0.434608777223242E+00
             -0.776340338191144E-01
             -0.406959319722616E+00
             -0.101251866008910E+01
             -0.501935251714062E+00
              0.359542820666217E+01
             -0.318673299734366E+00
             -0.124823839005212E+01
             -0.170074822278445E+01
              0.386714494464356E+00
             -0.953919653803560E+00
              0.139875060587883E+00
              0.820580764119272E+00
              0.182271784060305E+00
              0.107389755148800E+01
              0.605471682931213E+00
              0.154276007381350E+01
              0.562320506169558E+00
             -0.907708388357098E+00
              0.133401588952872E+01
              0.910071140219505E+00
              0.328297337862422E+00
              0.943328604371491E+00
             -0.757558603577079E+00
              0.173297352717388E+01
              0.665715498409883E+00
             -0.870752333694113E+00
             -0.286449826209104E+00
             -0.361381350590502E+00
              0.306794917912695E+00
             -0.584022286177345E+00
             -0.385356891571939E+00
             -0.252949363137155E+00
              0.192409376357383E+01
              0.153109760493735E+01
             -0.157157627234297E+01
             -0.230416423044988E+00
             -0.126196594257716E+01
             -0.267285966602006E+00
             -0.618227735235137E+00
              0.234403479620710E+00
             -0.716202934035026E-01
             -0.747578494566756E+00
              0.364946493258679E+00
             -0.245285552496051E+00
             -0.216813973590027E+00
              0.209645450049887E+01
              0.330436495648863E+00
             -0.213418391740831E+01
             -0.111979344800518E+01
              0.235717804788287E+01
              0.430581535254598E+00
             -0.232558981925609E+00
              0.273683991602606E+01
             -0.374610283711012E+00
             -0.172552461622623E+00
             -0.532417449372783E+00
              0.408418343871651E+00
              0.876112356536344E+00
              0.133247799916174E+00
              0.750429243493106E+00
             -0.259792362062874E+00
             -0.109078060320474E+01
             -0.907337126057464E+00
             -0.119302474112966E+01
              0.117563298289575E+01
              0.440149778701433E+00
              0.957463387719038E+00
              0.530718545275056E+00
              0.226212858599889E+01
              0.404292990703285E+00
             -0.183834164253367E+01
             -0.855888165972947E+00
             -0.130221033318516E-01
             -0.713406728805281E+00
              0.157481074878325E+01
             -0.225966352816519E+00
              0.269739861441077E+00
              0.134830099179421E+01
             -0.205933438143125E+01
              0.363939642213765E+01
              0.558649330920703E+00
              0.640585814518692E+00
              0.100054607246253E+01
             -0.374522309568857E-01
             -0.148805215347659E+00
              0.735813540863266E+00
             -0.904374637287827E+00
              0.217191694300407E+01
              0.194611563449633E+01
             -0.842417509195233E+00
              0.540835338505735E+00
              0.170702451413899E+01
             -0.517759901548852E+00
              0.628004275340210E+00
              0.714503729216056E+00
              0.108332433174906E+01
             -0.171441910128918E+01
             -0.504980487603266E-01
             -0.448375206810390E+00
             -0.237604475233013E+00
             -0.340506954567845E+00
              0.277723683351667E+00
             -0.445398096868302E+00
             -0.658284090409095E+00
              0.517543112763097E+00
              0.146507848602543E+00
              0.133621688394995E+01
             -0.116858997922441E+01
              0.108972535544221E+01
              0.150174224839761E+01
             -0.577139835898750E-01
              0.151980210001713E+01
             -0.161675832445673E+01
             -0.251675037572604E+01
             -0.110865570871745E+00
             -0.338139122858099E-01
              0.224548234739695E+00
              0.187858322777959E+01
              0.158133701245645E-01
              0.104020476025931E+01
              0.156972090835620E+01
              0.107766569226236E+01
              0.921929691848433E-02
              0.152498360956444E+01
             -0.467959886587453E+00
             -0.936626389209980E+00
             -0.967851793032573E+00
              0.145234323811347E+00
              0.901193890045493E+00
             -0.145999832993483E+00
              0.858856019999312E+00
              0.829422039874634E-01
              0.121374521621933E+01
              0.299710050008995E+00
              0.168859508403975E+00
             -0.139936137710142E+00
              0.639162831301876E+00
              0.100292389596728E+01
              0.354123945153122E+00
             -0.764163626600247E-01
             -0.129745223105728E+01
              0.634823518494037E+00
              0.496939043089384E+00
              0.823278615323709E+00
              0.692127501902292E+00
              0.857496350485420E+00
             -0.142873086962878E+00
              0.866093490402976E+00
             -0.100157323193991E+01
             -0.915634065167570E-01
             -0.136045899432341E+01
             -0.856589438189888E+00
              0.112101145372759E+01
             -0.225023936013143E+01
              0.567814582659222E+00
              0.409984130073962E+00
              0.235693822022602E+01
             -0.265088212319855E+00
              0.898919290967489E+00
             -0.432646669721706E+00
             -0.118545439187803E+01
             -0.167159632198537E+01
             -0.472313059020665E+00
             -0.242191774407238E+01
              0.278535550830920E+00
             -0.574344226646810E+00
              0.825671042025392E+00
              0.810350578514260E+00
             -0.677969377849573E+00
             -0.824513856324776E+00
              0.116053990596981E+01
             -0.131565831509477E+01
             -0.400561362738973E+00
             -0.280675982235739E+00
              0.580564764353423E+00
              0.712410628497455E-01
              0.938059252157446E-01
             -0.279199721890026E+00
              0.129174672271130E+01
             -0.171011148130528E+01
              0.193263355809480E+00
              0.148404945535948E+01
             -0.737626082817951E+00
              0.853065047413617E-01
             -0.115696528678319E+00
             -0.167032452893218E+01
             -0.984837530160293E+00
              0.217333009308590E-01
              0.873303585344600E+00
              0.879779859523594E+00
              0.256995090094023E+00
             -0.239403182532506E+00
              0.321377307002724E+00
             -0.101112290842115E+01
             -0.121832931120988E+00
             -0.144101711984845E+01
             -0.708181816334116E+00
              0.120295852188672E+01
             -0.801286678417830E+00
              0.175898246263385E+01
             -0.661211426082875E+00
              0.745194635874597E+00
              0.718050625820187E+00
             -0.143309375606475E+01
             -0.621012185727589E+00
              0.215576437324092E+00
             -0.100857035962070E+01
             -0.116821407553620E+01
             -0.224002522966097E+01
             -0.145884456148680E+01
             -0.111229190671287E+01
             -0.102738038107784E+01
             -0.422130478590779E-01
              0.719365727460494E+00
              0.457597646902705E+00
              0.691235242639296E+00
             -0.155007722768905E+01
              0.231605247439176E+00
              0.931348843096633E+00
             -0.175179273983022E+01
             -0.135642637379033E+01
             -0.102034445472566E+01
             -0.861753654564989E+00
              0.269996850392933E+00
              0.331939126712175E-01
             -0.814548323403444E+00
              0.673269449293684E+00
             -0.521881795225617E+00
              0.145422392692298E+01
             -0.208061543880154E+01
              0.153515626505570E+01
             -0.300066355672599E+00
             -0.137104106840707E+01
             -0.602695826625121E+00
             -0.230852220264137E+00
              0.105654517327997E+01
             -0.165323572495043E+01
             -0.257897322939244E+00
             -0.380802505230487E+00
              0.104002901719182E+01
              0.194155038218229E+01
             -0.264544962432803E+01
              0.226436710078803E+01
              0.805499518215489E+00
             -0.190489947013384E+01
             -0.777453234816597E+00
              0.198981648828386E+01
              0.151010979973256E+01
             -0.627494611780389E+00
             -0.185381803046370E+00
              0.499185292330024E+00
              0.193247847185135E+01
             -0.147592123534622E+01
              0.362600987199742E+00
             -0.812816334851645E-01
              0.722935330254581E+00
             -0.171720976477123E+01
             -0.138181534768459E-01
             -0.655297853924267E+00
              0.113716812430829E+01
              0.828282802768150E+00
             -0.236383197421996E+01
             -0.115263127294579E+01
             -0.567883369541333E+00
             -0.101205506992471E+01
             -0.282152778723380E+00
             -0.380553447390468E+00
              0.130682219428322E+01
              0.102126398099337E+01
             -0.697410085055781E-01
             -0.943867549134665E+00
             -0.232334328930952E+01
              0.137649889445052E+01
             -0.112556901078965E+01
             -0.845341131346741E+00
              0.270428901713363E+00
             -0.920461963975318E+00
             -0.984402233914055E+00
             -0.887811408604812E+00
             -0.135105137232545E+01
             -0.403688551502176E+00
             -0.106401352884717E+01
              0.136180948959512E+01
              0.141050895527604E+01
             -0.300310683143471E+00
[...]
  208          m_sumb_d                              0.024104                        260   4
  209        set_dd_magatom                        0.000016                           13   3
  210        set_dd_paw                            0.088881                           13   3
  211          set_rsgf_all                          0.000023                         13   4
  212          m_sumb_d                              0.087537                         91   4
  213        strkin                                0.037562                           13   3
  214          m_sumb_d                              0.007833                         13   4
  215        strelo                                0.261400                           13   3
  216          m_sumb_d                              0.016819                         26   4
  217        strnlr                               13.776004                           13   3
  218          rspher_all                            0.182743                        117   4
  219          phaser                                0.000075                        117   4
  220          rpro_isp                             13.448397                        117   4
  221            fftwav_mpi                           13.405659                      117   5
  222              fftwav                               13.405107                    117   6
  223                fft3d                                11.089143                  117   7
  224            rpromu                                0.026488                      117   5
  225              rpromu_gemm                           0.009032                    234   6
  226          m_sumb_d                              0.138779                         13   4
  227        m_bcast_d                             0.004389                           26   3
  228      potlok                              534.778054                             25   2
  229        fft3d_mpi                           165.675543                         5153   3
  230          fftbrc_mpi                          152.203960                       5153   4
  231            fftbas_plan_mpi                     152.187097                     5153   5
  232              dfftw_execute                        51.918175                  15459   6
  233              map_forward                          52.303679                   5178   6
  234                map_gather                            7.615501                 2614   7
  235                m_alltoallv_z                        18.779789                 2614   7
  236                map_scatter                          25.833805                 2614   7
  237              map_backward                         44.283532                   5128   6
  238                map_gather                           17.270841                 2564   7
  239                m_alltoallv_z                        18.820047                 2564   7
  240                map_scatter                           8.124496                 2564   7
  241        ggaall_grid                          23.657884                          441   3
  242        m_sumb_d                              0.899844                         2230   3
  243        pothar                                0.166961                           25   3
  244          m_sumb_d                              0.033963                         25   4
  245        m_bcast_d                             0.699839                           25   3
  246      potlok_metagga                        0.000142                             25   2
  247      set_dd_magatom                        0.000011                             13   2
  248      set_dd_paw                            0.173103                             25   2
  249        set_rsgf_all                          0.000043                           25   3
  250        m_sumb_d                              0.169199                          175   3
  251      m_bcast_d                             0.001420                             26   2
  252      wavpre_noio                           0.448901                             12   2
  253        stufak                                0.123881                           12   3
  254      eddiag                                4.400460                             12   2
  255        overl                                 0.000181                           12   3
  256        redis_proj                            0.015235                           36   3
  257          m_alltoall_d                          0.014850                         36   4
  258        fftwav_mpi                            1.292227                           12   3
  259          fftwav                                1.292158                         12   4
  260            fft3d                                 1.005165                       12   5
  261        hamilt_local                          1.956019                           12   3
  262          vhamil                                0.554760                         12   4
  263          kinhamil                              1.400996                         12   4
  264            fftext_mpi                            1.383265                       12   5
  265              fft3d_mpi                             1.340489                     12   6
  266                fft3d                                 1.340379                   12   7
  267        redis_pw                              0.878308                           36   3
  268          m_alltoall_d                          0.812826                         36   4
  269        orth1                                 0.053170                           12   3
  270        m_sumb_d                              0.032428                           12   3
  271        shift_bands_between_low_high          0.000016                           12   3
  272        lincom                                0.071402                           12   3
  273      set_charge                            4.447427                             12   2
  274        soft_charge                           3.931134                           12   3
  275          fftwav_mpi                            0.913233                         12   4
  276            fftwav                                0.913154                       12   5
  277              fft3d                                 0.728709                     12   6
  278          pw_charge                             0.130146                         12   4
  279          m_sumb_d                              0.887285                         12   4
  280          fft_gq                                1.327780                         12   4
  281            fft3d_mpi                             1.284607                       12   5
  282              fftbrc_mpi                            0.441202                     12   6
  283                fftbas_plan_mpi                       0.441137                   12   7
  284                  dfftw_execute                         0.233088                 36   8
  285                  map_backward                          0.201096                 24   8
  286                    map_gather                            0.115484               24   9
  287                    m_alltoallv_z                         0.078421               24   9
  288                    map_scatter                           0.006804               24   9
  289        depsum                                0.005213                           12   3
  290          m_sumb_d                              0.004961                         12   4
  291        augmentation_charge                   0.478811                           12   3
  292          fft3d_mpi                             0.365200                         12   4
  293            fftbrc_mpi                            0.340208                       12   5
  294              fftbas_plan_mpi                       0.340175                     12   6
  295                dfftw_execute                         0.115072                   36   7
  296                map_backward                          0.215661                   24   7
  297                  map_gather                            0.095149                 12   8
  298                  m_alltoallv_z                         0.083401                 12   8
  299                  map_scatter                           0.036821                 12   8
 
 Flat profile
 ============
 
             routine name                   CPU           calls
 ---------------------------------------------------------------
 potlok                               2464.988219         196
 dfftw_execute                         186.901286       54006
 m_alltoallv_z                         126.480259       18381
 map_scatter                           116.137772       18381
 map_gather                             84.094632       18381
 fft3d                                  76.210939         876
 fft3d_mpi                              68.450482       18215
 ggaall_grid                            49.651134         612
 m_sumb_d                               26.700198        8434
 total_time                             23.690905           1
 m_alltoall_d                           21.795570        3236
 eccp                                   14.711067         345
 fftwav                                 13.936056         663
 fftbas_plan_mpi                        13.274523       18002
 edwav                                  11.417194         170
 vhamil                                  5.769063         128
 soft_charge                             5.672966         183
 m_bcast_d                               5.480475         302
 lincom                                  2.788985         548
 w1_dscal                                2.510131          85
 pw_charge                               2.005670         183
 redis_pw                                1.945885         925
 augmentation_charge                     1.747549         183
 elmin_all                               1.621239          13
 orth1                                   1.243511         342
 pothar                                  1.037665         196
 fft_gq                                  0.657097         183
 fftext_mpi                              0.591798         213
 m_bcast_z                               0.591632          64
 set_charge                              0.539830         183
 lapack                                  0.385169          18
 wavpre_noio                             0.325020          12
 rspher_all                              0.257807         170
 map_backward                            0.252236       18172
 forloc                                  0.245869          13
 strelo                                  0.244580          13
 map_forward                             0.242963       17832
 eddav                                   0.152512           5
 kinhamil                                0.142247         128
 w1_copy                                 0.138377          54
 stufak                                  0.137771          13
 eddiag                                  0.133343         110
 ggemm                                   0.122893          18
 force_and_stress                        0.092677          13
 fftbrc_mpi                              0.064228       18002
 setdij_                                 0.052356         535
 choleski                                0.049475         183
 racc0                                   0.044394         103
 apply_precond                           0.039460          13
 redis_proj                              0.033463        2311
 rpro_isp                                0.032417         169
 strkin                                  0.029729          13
 set_dd_paw                              0.029524         209
 rpromu                                  0.025454         169
 rpromu_gemm                             0.020967         338
 orthch                                  0.020398         183
 setup_precond                           0.015665           5
 rpro1                                   0.014658          98
 overl                                   0.013828         494
 densta                                  0.012695         194
 rsp                                     0.006214          13
 strnlr                                  0.006010          13
 fewald                                  0.005414          13
 brgrid                                  0.005411           1
 depsum                                  0.004104         183
 fftwav_mpi                              0.003661         663
 hamilt_local                            0.002130         110
 redis_pw_all                            0.002013         170
 fornlr                                  0.001559          13
 redis_pw_over_bands                     0.000867         195
 newband                                 0.000837          23
 potlok_metagga                          0.000758         196
 overl1                                  0.000718          18
 hamiltmu                                0.000597          18
 fordep                                  0.000547          13
 rcp                                     0.000534          13
 set_rsgf_all                            0.000365         209
 raccmu_                                 0.000292          18
 crpa_reader                             0.000238           1
 phaser                                  0.000184         259
 proall                                  0.000154          13
 w1_projall                              0.000114          13
 rotate_active_occupied_orbital          0.000096          13
 shift_bands_between_low_high            0.000031          25
 set_dd_magatom                          0.000027          26
 truncate_high_frequency_w1              0.000024          23
 vectorpot                               0.000008           1
 ---------------------------------------------------------------
  summed up times    3336.05881810188     
 
 Accumulative profile
 ====================
 
             routine name                   CPU           calls
 ---------------------------------------------------------------
 total_time                           3336.058818           1
 potlok                               3096.377052         196
 elmin_all                            2744.244377          13
 fft3d_mpi                             618.426364       18215
 fftbrc_mpi                            527.447899       18002
 fftbas_plan_mpi                       527.383671       18002
 dfftw_execute                         186.901286       54006
 map_forward                           170.524737       17832
 map_backward                          156.683126       18172
 m_alltoallv_z                         126.480259       18381
 map_scatter                           116.137772       18381
 edwav                                  88.428925         170
 map_gather                             84.094632       18381
 fft3d                                  76.210939         876
 fftwav_mpi                             67.622673         663
 fftwav                                 67.619012         663
 set_charge                             65.808312         183
 soft_charge                            57.862632         183
 ggaall_grid                            49.651134         612
 m_sumb_d                               26.700198        8434
 eddiag                                 24.640751         110
 fftext_mpi                             23.124867         213
 m_alltoall_d                           21.795570        3236
 force_and_stress                       20.534583          13
 fft_gq                                 20.034865         183
 rpro_isp                               19.661874         169
 hamilt_local                           17.822927         110
 redis_pw                               15.125364         925
 kinhamil                               14.879809         128
 eccp                                   14.711067         345
 strnlr                                 13.776004          13
 eddav                                   8.926013           5
 redis_proj                              8.649554        2311
 augmentation_charge                     7.320435         183
 fornlr                                  5.892602          13
 vhamil                                  5.769063         128
 m_bcast_d                               5.480475         302
 hamiltmu                                2.836917          18
 lincom                                  2.788985         548
 w1_dscal                                2.510131          85
 orthch                                  2.460692         183
 pw_charge                               2.005670         183
 redis_pw_over_bands                     1.756374         195
 redis_pw_all                            1.755507         170
 proall                                  1.468206          13
 set_dd_paw                              1.429459         209
 orth1                                   1.243511         342
 pothar                                  1.155710         196
 newband                                 0.939251          23
 densta                                  0.770727         194
 m_bcast_z                               0.591632          64
 wavpre_noio                             0.448901          12
 lapack                                  0.385169          18
 forloc                                  0.326642          13
 strelo                                  0.261400          13
 rspher_all                              0.257807         170
 setdij_                                 0.213539         535
 w1_copy                                 0.138377          54
 stufak                                  0.137771          13
 ggemm                                   0.122893          18
 depsum                                  0.085415         183
 choleski                                0.049475         183
 rpromu                                  0.046421         169
 racc0                                   0.044394         103
 apply_precond                           0.039460          13
 strkin                                  0.037562          13
 fewald                                  0.026218          13
 rpromu_gemm                             0.020967         338
 setup_precond                           0.015665           5
 fordep                                  0.015080          13
 rpro1                                   0.014658          98
 overl                                   0.013828         494
 raccmu_                                 0.008245          18
 rsp                                     0.006214          13
 brgrid                                  0.005411           1
 w1_projall                              0.003666          13
 potlok_metagga                          0.000758         196
 overl1                                  0.000718          18
 rcp                                     0.000534          13
 set_rsgf_all                            0.000365         209
 crpa_reader                             0.000238           1
 phaser                                  0.000184         259
 rotate_active_occupied_orbital          0.000096          13
 shift_bands_between_low_high            0.000031          25
 set_dd_magatom                          0.000027          26
 truncate_high_frequency_w1              0.000024          23
 vectorpot                               0.000008           1
 ---------------------------------------------------------------
 
Profiling took   0.328419  0.108484  0.010142  0.009514 seconds
Profiling took   0.626546 seconds
