 vasp.6.3.2 27Jun22 (build Jan 03 2024 23:25:20) gamma-only                     
  
 executed on           IFC15_impi date 2024.06.05  05:41:28
 running  512 mpi-ranks, with    1 threads/rank
 distrk:  each k-point on  512 cores,    1 groups
 distr:  one band on NCORE=  32 cores,   16 groups


--------------------------------------------------------------------------------------------------------


 INCAR:
   ENCUT = 500.000000
   SIGMA = 0.010000
   EDIFF = 1.00e-05
   ALGO = A
   ISMEAR = 0
   NELM = 200
   NSW = 999
   NCORE = 32
   LCHARG = .TRUE.
   LWAVE = .TRUE.
   LREAL = Auto
   IBRION = 5
   POTIM = 0.015
   NFREE = 2
   ISYM = 0
   EDIFFG = -0.05
   GGA = BF
   LUSE_VDW = .TRUE.
   ZAB_VDW = -1.8867
   LBEEFENS = .TRUE.
   DIPOL = 0.5 0.5 0.65
   IDIPOL = 3
   LDIPOL = .TRUE.

 POTCAR:    PAW_PBE Au 04Oct2007                  
 POTCAR:    PAW_PBE O 08Apr2002                   
 POTCAR:    PAW_PBE Sr_sv 07Sep2000               
 POTCAR:    PAW_PBE Ti_sv 26Sep2005               
 POTCAR:    PAW_PBE H 15Jun2001                   
 -----------------------------------------------------------------------------
|                                                                             |
|               ----> ADVICE to this user running VASP <----                  |
|                                                                             |
|     You have switched on vdW-DFT.                                           |
|     This routine was written and supplied by Jiri Klimes. We recommend      |
|     that you carefully read and cite the following publications:            |
|       J. Klimes, D.R. Bowler, A. Michelides                                 |
|          J. Phys.: Cond Matt. 22 022201 (2010)                              |
|       J. Klimes, D.R. Bowler, A. Michelides                                 |
|          Phys. Rev. B. 83, 195131 (2011)                                    |
|     and references therein.                                                 |
|                                                                             |
 -----------------------------------------------------------------------------

 POTCAR:    PAW_PBE Au 04Oct2007                  
   SHA256 =  d0044ae04e2bdce24051b198fc5c053d722a5bc6fe3c3b100514a13fc5d2db88 Au/POTCAR             
   COPYR  = (c) Copyright 04Oct2007 Georg Kresse                                                    
   COPYR  = This file is part of the software VASP. Any use, copying, and all other rights are regul
   COPYR  = If you do not have a valid VASP license, you may not use, copy or distribute this file. 
   VRHFIN =Au: s1d10                                                                                
   LEXCH  = PE                                                                                      
   EATOM  =   926.0867 eV,   68.0654 Ry                                                             
                                                                                                    
   TITEL  = PAW_PBE Au 04Oct2007                                                                    
   LULTRA =        F    use ultrasoft PP ?                                                          
   IUNSCR =        1    unscreen: 0-lin 1-nonlin 2-no                                               
   RPACOR =    2.330    partial core radius                                                         
   POMASS =  196.966; ZVAL   =   11.000    mass and valenz                                          
   RCORE  =    2.500    outmost cutoff radius                                                       
   RWIGS  =    2.840; RWIGS  =    1.503    wigner-seitz radius (au A)                               
   ENMAX  =  229.943; ENMIN  =  172.457 eV                                                          
   ICORE  =        3    local potential                                                             
   LCOR   =        T    correct aug charges                                                         
   LPAW   =        T    paw PP                                                                      
   EAUG   =  356.670                                                                                
   DEXC   =    0.000                                                                                
   RMAX   =    2.562    core radius for proj-oper                                                   
   RAUG   =    1.300    factor for augmentation sphere                                              
   RDEP   =    2.598    radius for radial grids                                                     
   RDEPT  =    2.193    core radius for aug-charge                                                  
                                                                                                    
   Atomic configuration                                                                             
   16 entries                                                                                       
     n  l   j            E        occ.                                                              
     1  0  0.50    -80748.5001   2.0000                                                             
     2  0  0.50    -14244.7466   2.0000                                                             
     2  1  1.50    -12310.9591   6.0000                                                             
     3  0  0.50     -3362.1768   2.0000                                                             
     3  1  1.50     -2801.5463   6.0000                                                             
     3  2  2.50     -2203.8206  10.0000                                                             
     4  0  0.50      -729.8168   2.0000                                                             
     4  1  1.50      -546.0527   6.0000                                                             
     4  2  2.50      -325.7302  10.0000                                                             
     4  3  3.50       -81.1472  14.0000                                                             
     5  0  0.50      -108.3201   2.0000                                                             
     5  1  1.50       -59.7479   6.0000                                                             
     5  2  2.50        -6.8783  10.0000                                                             
     6  0  0.50        -5.7602   1.0000                                                             
     6  1  1.50        -6.8029   0.0000                                                             
     5  3  2.50        -1.3606   0.0000                                                             
   Description                                                                                      
     l       E           TYP  RCUT    TYP  RCUT                                                     
     2     -6.8782861     23  2.500                                                                 
     2     -8.2388687     23  2.500                                                                 
     0     -5.7601759     23  2.500                                                                 
     0     -0.8493231     23  2.500                                                                 
     1     -2.7211652     23  2.500                                                                 
     1     27.2116520     23  2.500                                                                 
     3     -1.3605826     23  2.500                                                                 
  local pseudopotential read in
  partial core-charges read in
  partial kinetic energy density read in
  atomic valenz-charges read in
  non local Contribution for L=           2  read in
    real space projection operators read in
  non local Contribution for L=           2  read in
    real space projection operators read in
  non local Contribution for L=           0  read in
    real space projection operators read in
  non local Contribution for L=           0  read in
    real space projection operators read in
  non local Contribution for L=           1  read in
    real space projection operators read in
  non local Contribution for L=           1  read in
    real space projection operators read in
    PAW grid and wavefunctions read in
 
   number of l-projection  operators is LMAX  =           6
   number of lm-projection operators is LMMAX =          18
 
 POTCAR:    PAW_PBE O 08Apr2002                   
   SHA256 =  818f92134a0a090dccd8ba1447fa70422a3b330e708bb4f08108d8ae51209ddf O/POTCAR              
   COPYR  = (c) Copyright 08Apr2002 Georg Kresse                                                    
   COPYR  = This file is part of the software VASP. Any use, copying, and all other rights are regul
   COPYR  = If you do not have a valid VASP license, you may not use, copy or distribute this file. 
   VRHFIN =O: s2p4                                                                                  
   LEXCH  = PE                                                                                      
   EATOM  =   432.3788 eV,   31.7789 Ry                                                             
                                                                                                    
   TITEL  = PAW_PBE O 08Apr2002                                                                     
   LULTRA =        F    use ultrasoft PP ?                                                          
   IUNSCR =        1    unscreen: 0-lin 1-nonlin 2-no                                               
   RPACOR =    1.200    partial core radius                                                         
   POMASS =   16.000; ZVAL   =    6.000    mass and valenz                                          
   RCORE  =    1.520    outmost cutoff radius                                                       
   RWIGS  =    1.550; RWIGS  =    0.820    wigner-seitz radius (au A)                               
   ENMAX  =  400.000; ENMIN  =  300.000 eV                                                          
   ICORE  =        2    local potential                                                             
   LCOR   =        T    correct aug charges                                                         
   LPAW   =        T    paw PP                                                                      
   EAUG   =  605.392                                                                                
   DEXC   =    0.000                                                                                
   RMAX   =    1.553    core radius for proj-oper                                                   
   RAUG   =    1.300    factor for augmentation sphere                                              
   RDEP   =    1.550    radius for radial grids                                                     
   RDEPT  =    1.329    core radius for aug-charge                                                  
                                                                                                    
   Atomic configuration                                                                             
    4 entries                                                                                       
     n  l   j            E        occ.                                                              
     1  0  0.50      -514.6923   2.0000                                                             
     2  0  0.50       -23.9615   2.0000                                                             
     2  1  0.50        -9.0305   4.0000                                                             
     3  2  1.50        -9.5241   0.0000                                                             
   Description                                                                                      
     l       E           TYP  RCUT    TYP  RCUT                                                     
     0    -23.9615318     23  1.200                                                                 
     0     -9.5240782     23  1.200                                                                 
     1     -9.0304911     23  1.520                                                                 
     1      8.1634956     23  1.520                                                                 
     2     -9.5240782      7  1.500                                                                 
  local pseudopotential read in
  partial core-charges read in
  partial kinetic energy density read in
  kinetic energy density of atom read in
  atomic valenz-charges read in
  non local Contribution for L=           0  read in
    real space projection operators read in
  non local Contribution for L=           0  read in
    real space projection operators read in
  non local Contribution for L=           1  read in
    real space projection operators read in
  non local Contribution for L=           1  read in
    real space projection operators read in
    PAW grid and wavefunctions read in
 
   number of l-projection  operators is LMAX  =           4
   number of lm-projection operators is LMMAX =           8
 
 POTCAR:    PAW_PBE Sr_sv 07Sep2000               
   SHA256 =  a8389d3481648516ee67182ee030b298d280b37e29cbbf2d8595f040d757c710 Sr_sv/POTCAR          
   COPYR  = (c) Copyright 07Sep2000 Georg Kresse                                                    
   COPYR  = This file is part of the software VASP. Any use, copying, and all other rights are regul
   COPYR  = If you do not have a valid VASP license, you may not use, copy or distribute this file. 
   VRHFIN =Sr: 4s4p5s                                                                               
   LEXCH  = PE                                                                                      
   EATOM  =   843.0319 eV,   61.9611 Ry                                                             
                                                                                                    
   TITEL  = PAW_PBE Sr_sv 07Sep2000                                                                 
   LULTRA =        F    use ultrasoft PP ?                                                          
   IUNSCR =        1    unscreen: 0-lin 1-nonlin 2-no                                               
   RPACOR =    2.200    partial core radius                                                         
   POMASS =   87.620; ZVAL   =   10.000    mass and valenz                                          
   RCORE  =    2.500    outmost cutoff radius                                                       
   RWIGS  =    4.040; RWIGS  =    2.138    wigner-seitz radius (au A)                               
   ENMAX  =  229.353; ENMIN  =  172.014 eV                                                          
   RCLOC  =    2.201    cutoff for local pot                                                        
   LCOR   =        T    correct aug charges                                                         
   LPAW   =        T    paw PP                                                                      
   EAUG   =  366.804                                                                                
   DEXC   =    0.000                                                                                
   RMAX   =    2.547    core radius for proj-oper                                                   
   RAUG   =    1.300    factor for augmentation sphere                                              
   RDEP   =    2.562    radius for radial grids                                                     
   RDEPT  =    2.128    core radius for aug-charge                                                  
                                                                                                    
   Atomic configuration                                                                             
   10 entries                                                                                       
     n  l   j            E        occ.                                                              
     1  0  0.50    -15934.8930   2.0000                                                             
     2  0  0.50     -2157.6250   2.0000                                                             
     2  1  1.50     -1917.0034   6.0000                                                             
     3  0  0.50      -333.7288   2.0000                                                             
     3  1  1.50      -256.0992   6.0000                                                             
     3  2  2.50      -127.9971  10.0000                                                             
     4  0  0.50       -40.8953   2.0000                                                             
     5  0  0.50        -3.5257   1.9990                                                             
     4  1  1.50       -22.8179   6.0000                                                             
     4  2  1.50        -1.2815   0.0010                                                             
   Description                                                                                      
     l       E           TYP  RCUT    TYP  RCUT                                                     
     0    -40.8953213     23  2.480                                                                 
     0     -3.5257161     23  2.480                                                                 
     1    -22.8178632     23  2.500                                                                 
     1    -24.1784458     23  2.500                                                                 
     2     -1.2814598     23  2.500                                                                 
     2      0.2279365     23  2.500                                                                 
  local pseudopotential read in
  partial core-charges read in
  partial kinetic energy density read in
  atomic valenz-charges read in
  non local Contribution for L=           0  read in
    real space projection operators read in
  non local Contribution for L=           0  read in
    real space projection operators read in
  non local Contribution for L=           1  read in
    real space projection operators read in
  non local Contribution for L=           1  read in
    real space projection operators read in
  non local Contribution for L=           2  read in
    real space projection operators read in
  non local Contribution for L=           2  read in
    real space projection operators read in
    PAW grid and wavefunctions read in
 
   number of l-projection  operators is LMAX  =           6
   number of lm-projection operators is LMMAX =          18
 
 POTCAR:    PAW_PBE Ti_sv 26Sep2005               
   SHA256 =  4d747badb5a5ea28d858fbac70885b3f8929d6fd9e5b0dbe1ecb9878dc164da1 Ti_sv/POTCAR          
   COPYR  = (c) Copyright 26Sep2005 Georg Kresse                                                    
   COPYR  = This file is part of the software VASP. Any use, copying, and all other rights are regul
   COPYR  = If you do not have a valid VASP license, you may not use, copy or distribute this file. 
   VRHFIN =Ti: 3p4s3d                                                                               
   LEXCH  = PE                                                                                      
   EATOM  =  1588.0892 eV,  116.7213 Ry                                                             
                                                                                                    
   TITEL  = PAW_PBE Ti_sv 26Sep2005                                                                 
   LULTRA =        F    use ultrasoft PP ?                                                          
   IUNSCR =        1    unscreen: 0-lin 1-nonlin 2-no                                               
   RPACOR =    2.000    partial core radius                                                         
   POMASS =   47.880; ZVAL   =   12.000    mass and valenz                                          
   RCORE  =    2.300    outmost cutoff radius                                                       
   RWIGS  =    2.300; RWIGS  =    1.217    wigner-seitz radius (au A)                               
   ENMAX  =  274.610; ENMIN  =  205.957 eV                                                          
   ICORE  =        3    local potential                                                             
   LCOR   =        T    correct aug charges                                                         
   LPAW   =        T    paw PP                                                                      
   EAUG   =  482.848                                                                                
   RMAX   =    2.348    core radius for proj-oper                                                   
   RAUG   =    1.300    factor for augmentation sphere                                              
   RDEP   =    2.381    radius for radial grids                                                     
   RDEPT  =    1.930    core radius for aug-charge                                                  
                                                                                                    
   Atomic configuration                                                                             
    8 entries                                                                                       
     n  l   j            E        occ.                                                              
     1  0  0.50     -4865.3608   2.0000                                                             
     2  0  0.50      -533.1368   2.0000                                                             
     2  1  1.50      -440.5031   6.0000                                                             
     3  0  0.50       -59.3186   2.0000                                                             
     4  0  0.50        -3.7291   1.0000                                                             
     3  1  1.50       -35.7012   6.0000                                                             
     3  2  2.50        -1.9157   3.0000                                                             
     4  3  2.50        -1.3606   0.0000                                                             
   Description                                                                                      
     l       E           TYP  RCUT    TYP  RCUT                                                     
     0    -59.3185931     23  1.800                                                                 
     0     -3.7290822     23  2.300                                                                 
     1    -35.7012045     23  2.300                                                                 
     1     -1.3605826     23  2.300                                                                 
     2     -1.9156920     23  2.300                                                                 
     2     -0.0236318     23  2.300                                                                 
     3     -1.3605826     23  2.300                                                                 
  local pseudopotential read in
  partial core-charges read in
  partial kinetic energy density read in
  atomic valenz-charges read in
  non local Contribution for L=           0  read in
    real space projection operators read in
  non local Contribution for L=           0  read in
    real space projection operators read in
  non local Contribution for L=           1  read in
    real space projection operators read in
  non local Contribution for L=           1  read in
    real space projection operators read in
  non local Contribution for L=           2  read in
    real space projection operators read in
  non local Contribution for L=           2  read in
    real space projection operators read in
    PAW grid and wavefunctions read in
 
   number of l-projection  operators is LMAX  =           6
   number of lm-projection operators is LMMAX =          18
 
 POTCAR:    PAW_PBE H 15Jun2001                   
   SHA256 =  030f79b5d3ab3cf0e668861823c8fb652ff669f3e15e46930bd03bfd63a607b6 H/POTCAR              
   COPYR  = (c) Copyright 15Jun2001 Georg Kresse                                                    
   COPYR  = This file is part of the software VASP. Any use, copying, and all other rights are regul
   COPYR  = If you do not have a valid VASP license, you may not use, copy or distribute this file. 
   VRHFIN =H: ultrasoft test                                                                        
   LEXCH  = PE                                                                                      
   EATOM  =    12.4884 eV,    0.9179 Ry                                                             
                                                                                                    
   TITEL  = PAW_PBE H 15Jun2001                                                                     
   LULTRA =        F    use ultrasoft PP ?                                                          
   IUNSCR =        0    unscreen: 0-lin 1-nonlin 2-no                                               
   RPACOR =    0.000    partial core radius                                                         
   POMASS =    1.000; ZVAL   =    1.000    mass and valenz                                          
   RCORE  =    1.100    outmost cutoff radius                                                       
   RWIGS  =    0.700; RWIGS  =    0.370    wigner-seitz radius (au A)                               
   ENMAX  =  250.000; ENMIN  =  200.000 eV                                                          
   RCLOC  =    0.701    cutoff for local pot                                                        
   LCOR   =        T    correct aug charges                                                         
   LPAW   =        T    paw PP                                                                      
   EAUG   =  400.000                                                                                
   RMAX   =    1.123    core radius for proj-oper                                                   
   RAUG   =    1.200    factor for augmentation sphere                                              
   RDEP   =    1.112    radius for radial grids                                                     
   RDEPT  =    0.926    core radius for aug-charge                                                  
                                                                                                    
   Atomic configuration                                                                             
    2 entries                                                                                       
     n  l   j            E        occ.                                                              
     1  0  0.50        -6.4927   1.0000                                                             
     2  1  0.50        -3.4015   0.0000                                                             
   Description                                                                                      
     l       E           TYP  RCUT    TYP  RCUT                                                     
     0     -6.4927494     23  1.100                                                                 
     0      6.8029130     23  1.100                                                                 
     1     -4.0817478     23  1.100                                                                 
  local pseudopotential read in
  atomic valenz-charges read in
  non local Contribution for L=           0  read in
    real space projection operators read in
  non local Contribution for L=           0  read in
    real space projection operators read in
  non local Contribution for L=           1  read in
    real space projection operators read in
    PAW grid and wavefunctions read in
 
   number of l-projection  operators is LMAX  =           3
   number of lm-projection operators is LMMAX =           5
 
 Optimization of the real space projectors (new method)

 maximal supplied QI-value         = 15.12
 optimisation between [QCUT,QGAM] = [ 11.34, 22.83] = [ 36.00,145.93] Ry 
 Optimized for a Real-space Cutoff    1.39 Angstroem

   l    n(q)    QCUT    max X(q) W(low)/X(q) W(high)/X(q)  e(spline) 
   2      9    11.338    60.898    0.39E-03    0.42E-03    0.21E-06
   2      9    11.338    58.894    0.40E-03    0.42E-03    0.22E-06
   0      9    11.338   109.617    0.13E-03    0.20E-04    0.13E-06
   0      9    11.338    75.026    0.13E-03    0.20E-04    0.13E-06
   1      9    11.338    16.344    0.33E-04    0.24E-03    0.18E-06
   1      9    11.338    10.160    0.26E-04    0.19E-03    0.15E-06
 Optimization of the real space projectors (new method)

 maximal supplied QI-value         = 24.76
 optimisation between [QCUT,QGAM] = [ 11.39, 22.77] = [ 36.31,145.25] Ry 
 Optimized for a Real-space Cutoff    1.00 Angstroem

   l    n(q)    QCUT    max X(q) W(low)/X(q) W(high)/X(q)  e(spline) 
   0      7    11.387    20.381    0.39E-03    0.13E-02    0.15E-06
   0      7    11.387    15.268    0.42E-03    0.14E-02    0.17E-06
   1      6    11.387     5.964    0.41E-03    0.11E-02    0.17E-06
   1      6    11.387     5.382    0.39E-03    0.87E-03    0.15E-06
 Optimization of the real space projectors (new method)

 maximal supplied QI-value         = 15.12
 optimisation between [QCUT,QGAM] = [ 11.34, 22.83] = [ 36.00,145.93] Ry 
 Optimized for a Real-space Cutoff    1.56 Angstroem

   l    n(q)    QCUT    max X(q) W(low)/X(q) W(high)/X(q)  e(spline) 
   0     11    11.338    11.565    0.26E-04    0.80E-05    0.70E-07
   0     11    11.338    10.214    0.41E-04    0.15E-04    0.15E-06
   1     10    11.338   189.983    0.18E-03    0.52E-04    0.42E-06
   1     10    11.338   193.105    0.19E-03    0.52E-04    0.42E-06
   2     10    11.338   115.941    0.22E-03    0.42E-03    0.43E-06
   2     10    11.338    76.444    0.21E-03    0.41E-03    0.42E-06
 Optimization of the real space projectors (new method)

 maximal supplied QI-value         = 16.25
 optimisation between [QCUT,QGAM] = [ 11.38, 22.75] = [ 36.24,144.96] Ry 
 Optimized for a Real-space Cutoff    1.27 Angstroem

   l    n(q)    QCUT    max X(q) W(low)/X(q) W(high)/X(q)  e(spline) 
   0      9    11.376    12.277    0.53E-04    0.25E-04    0.25E-07
   0      9    11.376    11.419    0.89E-04    0.67E-05    0.35E-07
   1      8    11.376     4.010    0.13E-03    0.11E-03    0.29E-07
   1      8    11.376     6.182    0.94E-04    0.19E-03    0.11E-06
   2      8    11.376    47.177    0.13E-03    0.88E-03    0.24E-06
   2      8    11.376    42.437    0.13E-03    0.86E-03    0.23E-06
 Optimization of the real space projectors (new method)

 maximal supplied QI-value         = 34.20
 optimisation between [QCUT,QGAM] = [ 11.29, 22.57] = [ 35.68,142.71] Ry 
 Optimized for a Real-space Cutoff    1.16 Angstroem

   l    n(q)    QCUT    max X(q) W(low)/X(q) W(high)/X(q)  e(spline) 
   0      8    11.287    19.460    0.40E-03    0.73E-03    0.16E-06
   0      8    11.287    12.209    0.38E-03    0.70E-03    0.15E-06
   1      7    11.287     4.655    0.22E-03    0.25E-04    0.22E-06
 -----------------------------------------------------------------------------
|                                                                             |
|               ----> ADVICE to this user running VASP <----                  |
|                                                                             |
|     You enforced a specific xc type in the INCAR file but a different       |
|     type was found in the POTCAR file.                                      |
|     I HOPE YOU KNOW WHAT YOU ARE DOING!                                     |
|                                                                             |
 -----------------------------------------------------------------------------

  PAW_PBE Au 04Oct2007                  :
 energy of atom  1       EATOM= -926.0867
 kinetic energy error for atom=    0.0042 (will be added to EATOM!!)
  PAW_PBE O 08Apr2002                   :
 energy of atom  2       EATOM= -432.3788
 kinetic energy error for atom=    0.0224 (will be added to EATOM!!)
  PAW_PBE Sr_sv 07Sep2000               :
 energy of atom  3       EATOM= -843.0319
 kinetic energy error for atom=    0.0012 (will be added to EATOM!!)
  PAW_PBE Ti_sv 26Sep2005               :
 energy of atom  4       EATOM=-1588.0892
 kinetic energy error for atom=    0.0046 (will be added to EATOM!!)
  PAW_PBE H 15Jun2001                   :
 energy of atom  5       EATOM=  -12.4884
 kinetic energy error for atom=    0.0020 (will be added to EATOM!!)
 
 
 POSCAR: Au O  Sr Ti H
  positions in cartesian coordinates
  No initial velocities read in
 exchange correlation table for  LEXCH =       17
   RHO(1)=    0.500       N(1)  =     2000
   RHO(2)=  100.500       N(2)  =     4000

 VTST: version 4.1, (05/19/21)

 CHAIN: initializing optimizer
 
 OPT: Using VASP Dynamics algorithm
 CHAIN: Read ICHAIN            0
 
 POSCAR: Au O  Sr Ti H
  positions in cartesian coordinates
  No initial velocities read in
 


--------------------------------------------------------------------------------------------------------


 ion  position               nearest neighbor table
   1  0.717  0.523  0.752-  15 2.71  16 2.72  14 2.79   2 2.81  44 2.87  29 2.89  46 2.96
   2  0.624  0.567  0.703- 264 2.07   1 2.81  15 2.83  48 2.84  46 2.90  12 2.93  16 2.94  36 3.08
                            11 3.29   5 3.52 380 3.69
   3  0.719  0.259  0.692- 294 2.06 253 2.08  32 2.66  43 2.78  27 2.86 401 3.05 370 4.01 371 4.06

   4  0.288  0.745  0.699- 310 2.06 266 2.07   9 2.76  23 2.81  50 3.10  42 3.49  45 3.51 368 4.27
                           372 4.30
   5  0.514  0.605  0.777-  26 2.69  48 2.74  13 2.84  12 2.89  47 2.90  39 2.94  16 3.03   6 3.12
                            49 3.42  31 3.50   2 3.52
   6  0.577  0.725  0.793-  36 2.73  18 2.74  17 2.78  47 2.81  13 2.99   5 3.12  48 3.13  16 3.48

   7  0.551  0.385  0.830-  10 2.76  33 2.80  29 2.88  20 2.89  31 2.95  34 2.99  12 3.06  41 3.43

   8  0.243  0.466  0.709- 309 2.09  19 2.68  24 2.81  45 2.84  40 2.94  35 3.05 378 4.15
   9  0.283  0.660  0.766-  45 2.70  50 2.75  30 2.75   4 2.76  24 2.80
  10  0.602  0.289  0.789-   7 2.76  41 2.78  32 2.78  27 2.80  43 2.82  25 3.15  34 3.26
  11  0.515  0.483  0.678- 279 2.11 247 2.16  26 2.70  12 2.77  34 2.90  49 2.91 389 3.13   2 3.29
                            46 3.34 375 3.53  37 3.59 386 4.06
  12  0.561  0.487  0.763-  11 2.77  34 2.80  49 2.83  29 2.87   5 2.89  31 2.91   2 2.93  46 3.00
                            16 3.01   7 3.06
  13  0.464  0.695  0.830-  50 2.81   5 2.84  30 2.85  47 2.87  39 2.89  18 2.92   6 2.99
  14  0.768  0.430  0.705- 254 2.01  44 2.73   1 2.79  46 2.85  43 2.89 363 3.68 370 4.23
  15  0.734  0.615  0.694- 292 2.10 250 2.13  36 2.68   1 2.71   2 2.83  28 3.25 380 3.42 365 3.73

  16  0.637  0.583  0.800-   1 2.72  47 2.78  36 2.78  31 2.83   2 2.94  12 3.01   5 3.03  29 3.22
                             6 3.48
  17  0.595  0.785  0.713- 257 2.09   6 2.78  28 2.79  48 2.93  18 2.96  36 3.11 379 4.17 384 4.32

  18  0.484  0.780  0.757-   6 2.74  42 2.82  23 2.85  50 2.86  13 2.92  17 2.96  48 3.41
  19  0.350  0.501  0.697- 291 2.10   8 2.68  49 2.88  37 2.90  24 2.90  40 2.98  45 2.99  26 3.04
                           368 4.12 369 4.27
  20  0.431  0.372  0.816-  33 2.78  21 2.80   7 2.89  49 2.92  41 2.94  40 2.98  38 3.03  34 3.16

  21  0.373  0.299  0.756-  37 2.77  35 2.78  20 2.80  40 2.82  22 2.85  41 2.85
  22  0.441  0.229  0.697- 302 2.01 289 2.15  41 2.74  25 2.78  21 2.85  37 3.58 376 3.89 367 4.34

  23  0.387  0.814  0.706- 290 2.08  42 2.75  50 2.78   4 2.81  18 2.85 372 3.64 384 4.18
  24  0.290  0.536  0.778-   9 2.80  38 2.81   8 2.81  40 2.88  45 2.89  19 2.90  30 2.91
  25  0.555  0.207  0.712- 311 2.14  22 2.78  41 2.84  27 2.85  32 2.87  10 3.15 376 3.91
  26  0.455  0.580  0.703- 291 2.11   5 2.69  11 2.70  42 2.73  49 2.86  48 2.89  19 3.04 386 3.61

  27  0.612  0.318  0.698- 263 2.03  43 2.77  10 2.80  25 2.85  34 2.85  46 2.86   3 2.86  32 3.41
                           370 3.62 375 4.21
  28  0.706  0.758  0.688- 293 2.04 250 2.05  36 2.63  17 2.79 400 3.13  15 3.25 379 3.80 380 4.18

  29  0.657  0.441  0.810-  43 2.85  12 2.87  44 2.88   7 2.88   1 2.89  31 2.90  16 3.22  46 3.37

  30  0.368  0.619  0.820-   9 2.75  39 2.78  13 2.85  38 2.86  24 2.91  50 2.93
  31  0.572  0.510  0.858-  33 2.77  16 2.83  47 2.90  29 2.90  12 2.91   7 2.95  39 2.96   5 3.50

  32  0.664  0.195  0.752-   3 2.66  10 2.78  25 2.87  27 3.41  43 3.50
  33  0.473  0.452  0.879-  31 2.77  39 2.77  20 2.78   7 2.80  38 2.80
  34  0.516  0.377  0.735-  41 2.80  12 2.80  49 2.85  27 2.85  11 2.90   7 2.99  37 3.10  20 3.16
                            10 3.26  46 3.59 375 4.21
  35  0.284  0.337  0.703- 267 2.06  21 2.78  40 2.82  37 2.90   8 3.05 369 3.54 378 4.10
  36  0.669  0.681  0.749-  28 2.63  15 2.68   6 2.73  16 2.78   2 3.08  17 3.11  48 3.25
  37  0.398  0.382  0.690- 303 2.03 289 2.14  21 2.77  35 2.90  19 2.90  40 2.99  49 3.04  34 3.10
                           369 3.39  22 3.58  11 3.59 375 3.78
  38  0.376  0.492  0.834-  33 2.80  24 2.81  49 2.84  30 2.86  40 2.86  39 2.90  20 3.03
  39  0.463  0.574  0.864-  33 2.77  30 2.78  47 2.83  13 2.89  38 2.90   5 2.94  31 2.96
  40  0.327  0.413  0.770-  21 2.82  35 2.82  38 2.86  24 2.88   8 2.94  19 2.98  20 2.98  37 2.99
                            49 3.09
  41  0.487  0.268  0.775-  22 2.74  10 2.78  34 2.80  25 2.84  21 2.85  20 2.94   7 3.43
  42  0.429  0.699  0.699- 256 2.03  26 2.73  23 2.75  18 2.82  50 2.86  48 2.88   4 3.49 386 3.98
                           368 4.18
  43  0.699  0.347  0.756-  27 2.77   3 2.78  10 2.82  29 2.85  44 2.86  14 2.89  46 2.96  32 3.50

  44  0.777  0.429  0.796- 459 1.60  14 2.73  43 2.86   1 2.87  29 2.88
  45  0.256  0.591  0.695- 265 2.04 310 2.09   9 2.70   8 2.84  24 2.89  19 2.99   4 3.51 368 3.59
                           373 3.71
  46  0.648  0.440  0.698- 279 2.19  14 2.85  27 2.86   2 2.90   1 2.96  43 2.96  12 3.00  11 3.34
                            29 3.37 370 3.50  34 3.59
  47  0.566  0.639  0.860-  16 2.78   6 2.81  39 2.83  13 2.87   5 2.90  31 2.90
  48  0.547  0.665  0.701- 280 2.11   5 2.74   2 2.84  42 2.88  26 2.89  17 2.93   6 3.13  36 3.25
                            18 3.41 386 3.50
  49  0.443  0.474  0.756-  12 2.83  38 2.84  34 2.85  26 2.86  19 2.88  11 2.91  20 2.92  37 3.04
                            40 3.09   5 3.42
  50  0.373  0.737  0.778-   9 2.75  23 2.78  13 2.81  42 2.86  18 2.86  30 2.93   4 3.10
  51  0.250  0.189  0.454- 448 1.97 418 2.13 319 2.73 360 2.81 342 2.81 327 2.85
  52  0.749  0.938  0.455- 417 1.95 444 2.00 350 2.82 339 2.84 322 2.84 332 2.88
  53  0.749  0.689  0.457- 432 1.98 446 2.04 325 2.78 362 2.84 348 2.84 316 2.88
  54  0.749  0.438  0.456- 422 1.99 458 2.01 323 2.71 347 2.83 359 2.84 349 2.84
  55  0.750  0.190  0.456- 445 1.98 423 2.11 324 2.75 335 2.80 358 2.84 346 2.85
  56  0.417  0.936  0.454- 424 2.00 440 2.01 357 2.77 345 2.79 329 2.86 320 2.92
  57  0.417  0.685  0.455- 414 1.91 443 2.05 356 2.77 344 2.78 321 2.83 331 2.91
  58  0.417  0.435  0.454- 415 1.96 442 2.01 355 2.77 343 2.77 333 2.83 318 2.85
  59  0.084  0.687  0.453- 439 1.97 413 2.10 352 2.76 340 2.79 330 2.82 336 2.93
  60  0.084  0.937  0.453- 436 1.98 412 2.11 353 2.77 341 2.79 326 2.89 338 2.91
  61  0.083  0.437  0.453- 438 1.97 421 2.11 361 2.78 328 2.78 351 2.78 317 2.92
  62  0.084  0.187  0.453- 437 1.98 433 2.12 360 2.76 385 2.78 327 2.88 337 2.89
  63  0.917  0.812  0.454- 434 1.98 411 2.12 362 2.75 339 2.80 341 2.81 336 2.87
  64  0.916  0.562  0.454- 435 1.98 410 2.11 349 2.78 316 2.79 340 2.80 317 2.90
  65  0.251  0.439  0.455- 449 1.98 420 2.06 318 2.70 343 2.81 328 2.85 351 2.85
  66  0.916  0.062  0.454- 455 1.98 430 2.11 358 2.79 385 2.81 332 2.85 338 2.89
  67  0.916  0.312  0.454- 456 1.98 429 2.09 359 2.79 361 2.80 335 2.81 337 2.90
  68  0.417  0.187  0.454- 441 1.98 416 2.07 354 2.78 342 2.79 334 2.81 319 2.87
  69  0.252  0.687  0.456- 419 1.99 450 2.03 321 2.76 344 2.79 352 2.87 330 2.90
  70  0.917  0.937  0.453- 455 1.98 411 2.11 341 2.78 339 2.78 332 2.90 338 2.90
  71  0.583  0.189  0.455- 452 1.98 426 2.09 334 2.72 324 2.79 354 2.82 346 2.84
  72  0.000  0.125  0.498- 430 1.97 433 1.98 385 2.74 337 2.79 338 2.80
  73  0.584  0.810  0.455- 454 1.97 431 2.10 325 2.72 331 2.76 350 2.84 357 2.85
  74  0.000  0.374  0.499- 429 1.94 421 1.95 361 2.75 337 2.77 317 2.84
  75  1.000  0.627  0.498- 413 1.93 410 1.94 340 2.72 336 2.77 317 2.84
  76  0.333  0.125  0.498- 416 1.96 418 2.01 342 2.74 319 2.75 320 2.78 367 3.45
  77  0.000  0.875  0.499- 412 1.97 411 1.98 341 2.77 336 2.78 338 2.80
  78  0.333  0.874  0.499- 424 1.97 425 2.01 321 2.75 345 2.75 320 2.85 372 3.13
  79  0.666  0.126  0.499- 426 1.96 423 2.01 324 2.73 346 2.77 322 2.81 371 3.37
  80  0.336  0.625  0.504- 414 1.92 419 2.08 368 2.73 321 2.81 318 2.81 344 2.92
  81  0.334  0.379  0.503- 415 1.94 420 2.08 318 2.70 369 2.70 343 2.88 319 2.92
  82  0.666  0.379  0.503- 428 1.94 422 2.06 323 2.70 370 2.74 347 2.89 324 2.92
  83  0.915  0.687  0.453- 434 1.97 410 2.10 316 2.75 340 2.80 362 2.80 336 2.93
  84  0.916  0.437  0.454- 435 1.98 429 2.10 359 2.78 349 2.79 361 2.79 317 2.91
  85  0.916  0.187  0.453- 456 1.98 430 2.12 358 2.76 335 2.78 385 2.79 337 2.92
  86  0.583  0.936  0.454- 451 2.00 431 2.06 357 2.77 350 2.79 329 2.86 322 2.89
  87  0.583  0.686  0.454- 427 1.91 454 2.02 356 2.78 348 2.80 325 2.84 331 2.86
  88  0.583  0.439  0.456- 453 2.01 428 2.02 333 2.71 323 2.80 355 2.82 347 2.85
  89  0.250  0.936  0.454- 425 1.94 447 2.01 345 2.78 353 2.78 320 2.90 326 2.93
  90  0.665  0.626  0.503- 427 1.93 432 2.06 380 2.73 325 2.81 323 2.82 348 2.88
  91  0.585  0.562  0.455- 427 2.00 453 2.00 333 2.77 323 2.79 348 2.79 356 2.84
  92  0.583  0.062  0.455- 451 2.00 426 2.02 354 2.80 346 2.82 322 2.85 329 2.86
  93  0.917  0.687  0.361- 434 1.97 340 2.79 316 2.79
  94  0.917  0.437  0.361- 435 1.97 361 2.79 359 2.79
  95  0.917  0.188  0.361- 456 1.97 385 2.79 358 2.79
  96  0.583  0.938  0.361- 451 1.97 357 2.79 350 2.79
  97  0.583  0.687  0.361- 454 1.97 356 2.79 348 2.79
  98  0.583  0.437  0.361- 453 1.97 355 2.79 347 2.79
  99  0.583  0.188  0.361- 452 1.97 354 2.79 346 2.79
 100  0.250  0.938  0.361- 447 1.97 353 2.79 345 2.79
 101  0.917  0.938  0.361- 455 1.97 341 2.79 339 2.79
 102  0.250  0.687  0.361- 450 1.97 352 2.79 344 2.79
 103  0.250  0.188  0.361- 448 1.97 360 2.79 342 2.79
 104  0.750  0.938  0.361- 444 1.97 350 2.79 339 2.79
 105  0.750  0.687  0.361- 446 1.97 348 2.79 316 2.79
 106  0.750  0.437  0.361- 458 1.97 347 2.79 359 2.79
 107  0.750  0.188  0.361- 445 1.97 346 2.79 358 2.79
 108  0.417  0.938  0.361- 440 1.97 345 2.79 357 2.79
 109  0.417  0.687  0.361- 443 1.97 344 2.79 356 2.79
 110  0.417  0.437  0.361- 442 1.97 343 2.79 355 2.79
 111  0.250  0.437  0.361- 449 1.97 351 2.79 343 2.79
 112  0.083  0.063  0.361- 436 1.97 385 2.79 360 2.79
 113  0.083  0.312  0.361- 437 1.97 361 2.79 351 2.79
 114  0.083  0.563  0.361- 438 1.97 352 2.79 340 2.79
 115  0.917  0.312  0.361- 456 1.97 361 2.79 359 2.79
 116  0.917  0.063  0.361- 455 1.97 385 2.79 358 2.79
 117  0.583  0.812  0.361- 454 1.97 357 2.79 350 2.79
 118  0.583  0.563  0.361- 453 1.97 356 2.79 348 2.79
 119  0.583  0.312  0.361- 452 1.97 355 2.79 347 2.79
 120  0.583  0.063  0.361- 451 1.97 354 2.79 346 2.79
 121  0.250  0.812  0.361- 450 1.97 353 2.79 345 2.79
 122  0.250  0.563  0.361- 449 1.97 352 2.79 344 2.79
 123  0.250  0.312  0.361- 448 1.97 351 2.79 343 2.79
 124  0.250  0.063  0.361- 447 1.97 360 2.79 342 2.79
 125  0.750  0.812  0.361- 446 1.97 350 2.79 339 2.79
 126  0.750  0.563  0.361- 458 1.97 348 2.79 316 2.79
 127  0.750  0.312  0.361- 445 1.97 347 2.79 359 2.79
 128  0.750  0.063  0.361- 444 1.97 346 2.79 358 2.79
 129  0.417  0.812  0.361- 443 1.97 345 2.79 357 2.79
 130  0.417  0.563  0.361- 442 1.97 344 2.79 356 2.79
 131  0.417  0.312  0.361- 441 1.97 343 2.79 355 2.79
 132  0.417  0.063  0.361- 440 1.97 342 2.79 354 2.79
 133  0.083  0.812  0.361- 439 1.97 353 2.79 341 2.79
 134  0.417  0.188  0.361- 441 1.97 342 2.79 354 2.79
 135  0.083  0.938  0.361- 436 1.97 353 2.79 341 2.79
 136  0.083  0.687  0.361- 439 1.97 352 2.79 340 2.79
 137  0.083  0.437  0.361- 438 1.97 361 2.79 351 2.79
 138  0.833  0.500  0.407- 458 1.97 435 1.97 316 2.79 359 2.79 349 2.88
 139  0.833  0.750  0.407- 446 1.97 434 1.97 339 2.79 316 2.79 362 2.87
 140  0.084  0.062  0.454- 436 1.98 433 2.11 360 2.80 385 2.81 326 2.85 338 2.88
 141  0.084  0.312  0.454- 437 1.97 421 2.10 351 2.79 361 2.80 337 2.87 327 2.89
 142  0.084  0.563  0.454- 438 1.98 413 2.11 328 2.75 352 2.78 340 2.81 317 2.91
 143  0.084  0.812  0.454- 439 1.98 412 2.11 330 2.77 353 2.80 341 2.81 336 2.88
 144  0.417  0.062  0.455- 416 1.96 440 2.00 354 2.82 342 2.83 320 2.84 329 2.84
 145  0.415  0.311  0.457- 415 1.92 441 2.04 334 2.81 319 2.82 343 2.84 355 2.88
 146  0.416  0.559  0.458- 414 1.97 442 2.02 333 2.73 318 2.74 344 2.88 356 2.90
 147  0.417  0.810  0.455- 443 1.97 424 2.09 321 2.74 331 2.78 345 2.85 357 2.85
 148  0.750  0.064  0.453- 444 1.99 423 2.02 346 2.76 358 2.78 322 2.90 332 2.93
 149  0.747  0.314  0.455- 422 2.00 445 2.02 347 2.75 324 2.81 359 2.83 335 2.94
 150  0.748  0.564  0.454- 432 1.99 458 2.00 348 2.74 323 2.76 316 2.80 349 2.93
 151  0.749  0.813  0.453- 446 1.97 417 2.09 350 2.77 339 2.78 325 2.82 362 2.87
 152  0.250  0.062  0.454- 447 1.98 418 2.11 342 2.80 360 2.81 320 2.85 326 2.88
 153  0.915  0.312  0.547- 429 1.85 409 2.21 335 2.71 337 2.74 363 2.87 381 3.35
 154  0.252  0.314  0.454- 420 1.97 448 2.01 343 2.74 319 2.78 351 2.82 327 2.95
 155  0.252  0.565  0.454- 419 1.99 449 2.01 344 2.73 318 2.77 352 2.80 328 2.93
 156  0.250  0.810  0.456- 450 1.98 425 2.07 321 2.76 330 2.82 345 2.84 353 2.85
 157  0.833  0.250  0.407- 445 1.97 456 1.97 359 2.79 358 2.79 335 2.89
 158  0.584  0.314  0.454- 428 1.95 452 2.02 347 2.76 355 2.79 334 2.85 324 2.86
 159  0.833  0.000  0.407- 444 1.97 455 1.97 358 2.79 339 2.79 332 2.98
 160  0.500  0.500  0.407- 453 1.97 442 1.97 355 2.79 356 2.79 333 2.80
 161  0.083  0.188  0.361- 437 1.97 385 2.79 360 2.79
 162  0.000  0.000  0.407- 455 1.97 436 1.97 385 2.79 341 2.79 338 2.98
 163  0.000  0.250  0.407- 456 1.97 437 1.97 361 2.79 385 2.79 337 2.97
 164  0.000  0.500  0.407- 435 1.97 438 1.97 340 2.79 361 2.79 317 3.01
 165  0.000  0.750  0.407- 434 1.97 439 1.97 341 2.79 340 2.79 336 2.99
 166  0.333  0.000  0.407- 440 1.97 447 1.97 342 2.79 345 2.79 320 2.96
 167  0.333  0.250  0.407- 441 1.97 448 1.97 343 2.79 342 2.79 319 2.87
 168  0.333  0.500  0.407- 442 1.97 449 1.97 343 2.79 344 2.79 318 2.82
 169  0.333  0.750  0.407- 443 1.97 450 1.97 345 2.79 344 2.79 321 2.84
 170  0.667  0.000  0.407- 444 1.97 451 1.97 346 2.79 350 2.79 322 2.96
 171  0.667  0.250  0.407- 445 1.97 452 1.97 347 2.79 346 2.79 324 2.88
 172  0.667  0.500  0.407- 458 1.97 453 1.97 347 2.79 348 2.79 323 2.81
 173  0.667  0.750  0.407- 446 1.97 454 1.97 350 2.79 348 2.79 325 2.85
 174  0.167  0.000  0.407- 447 1.97 436 1.97 360 2.79 353 2.79 326 2.99
 175  0.167  0.250  0.407- 448 1.97 437 1.97 351 2.79 360 2.79 327 2.98
 176  0.167  0.500  0.407- 449 1.97 438 1.97 351 2.79 352 2.79 328 2.86
 177  0.167  0.750  0.407- 450 1.97 439 1.97 353 2.79 352 2.79 330 2.90
 178  0.500  0.000  0.407- 451 1.97 440 1.97 354 2.79 357 2.79 329 2.95
 179  0.500  0.250  0.407- 452 1.97 441 1.97 355 2.79 354 2.79 334 2.85
 180  0.500  0.750  0.407- 454 1.97 443 1.97 357 2.79 356 2.79 331 2.91
 181  0.167  0.124  0.499- 418 1.96 433 2.00 326 2.76 360 2.77 327 2.78
 182  0.918  0.063  0.547- 430 1.84 387 2.20 338 2.70 332 2.72 315 3.20 383 3.24
 183  0.168  0.873  0.500- 425 1.93 412 2.03 330 2.72 353 2.79 326 2.86
 184  0.252  0.188  0.547- 418 1.87 395 2.13 319 2.65 327 2.72 367 3.13 377 3.33
 185  0.749  0.934  0.548- 417 1.82 402 2.27 322 2.77 332 2.79 379 2.92 364 3.16
 186  0.752  0.680  0.553- 400 1.96 432 1.96 380 2.65 365 2.85 362 2.96 325 3.00
 187  0.753  0.434  0.549- 422 1.92 399 2.07 370 2.74 349 2.81 323 2.87 363 2.93
 188  0.423  0.444  0.546- 408 1.88 415 2.06 333 2.61 318 2.84 375 2.88 369 3.12
 189  0.423  0.688  0.547- 414 1.95 398 2.01 331 2.67 386 2.77 321 2.87 368 2.92
 190  0.748  0.184  0.551- 423 1.94 401 1.94 324 2.80 335 2.89 371 2.99 383 3.17
 191  0.416  0.937  0.546- 424 1.85 396 2.26 320 2.71 329 2.72 372 2.88 384 3.08
 192  0.084  0.939  0.546- 412 1.84 406 2.18 326 2.67 338 2.67 374 3.30 366 3.36
 193  0.416  0.191  0.546- 397 1.85 416 2.03 319 2.72 334 2.73 376 3.10 367 3.24
 194  0.087  0.690  0.545- 413 1.85 405 2.21 330 2.62 336 2.72 373 2.79
 195  0.083  0.438  0.545- 421 1.84 404 2.23 317 2.67 328 2.68 378 3.06 381 3.35
 196  0.084  0.189  0.546- 433 1.85 403 2.19 327 2.64 337 2.67 315 3.30 377 3.36
 197  0.499  0.125  0.500- 416 1.98 426 2.00 334 2.73 354 2.78 329 2.82 376 3.19
 198  1.000  0.499  0.595- 457 1.94 404 1.95 317 2.62 381 2.89 382 3.17
 199  0.999  0.754  0.592- 405 1.94 407 1.95 336 2.57 366 2.84 382 3.35
 200  0.335  0.254  0.593- 397 1.90 395 2.06 369 2.68 319 2.70 367 3.06
 201  0.334  1.000  0.592- 396 2.00 394 2.04 320 2.59 372 2.72 367 2.76
 202  1.000  0.998  0.593- 387 2.00 406 2.01 338 2.59 366 2.89 315 2.89
 203  0.001  0.250  0.592- 409 1.95 403 1.99 337 2.58 381 2.94 315 2.95
 204  0.334  0.497  0.591- 408 1.85 390 2.16 318 2.70 369 2.75 368 2.84
 205  0.335  0.739  0.592- 398 1.94 391 2.05 368 2.58 321 2.71 372 3.13
 206  0.663  0.247  0.591- 392 1.88 401 2.15 324 2.63 370 2.79 371 2.81
 207  0.666  0.001  0.592- 393 2.01 402 2.02 322 2.59 379 2.71 371 2.83
 208  0.666  0.742  0.590- 388 1.95 400 2.05 380 2.58 325 2.65 379 3.14
 209  0.667  0.493  0.591- 389 1.81 399 2.13 370 2.71 323 2.71 380 2.98
 210  0.167  0.998  0.592- 394 1.98 406 2.02 326 2.57 377 2.91 374 2.92
 211  0.169  0.249  0.593- 395 1.94 403 2.03 327 2.61 378 2.77 377 2.95
 212  0.171  0.750  0.595- 391 1.87 405 2.16 330 2.75 373 2.76 374 2.83
 213  0.248  0.436  0.549- 390 1.94 420 1.98 369 2.65 318 2.83 328 2.84 378 3.02
 214  0.165  0.503  0.588- 390 1.83 404 2.05 328 2.57 373 2.80 378 3.00
 215  0.249  0.683  0.552- 391 1.96 419 1.97 368 2.75 373 2.90 330 2.90 321 2.92
 216  0.581  0.186  0.549- 426 1.93 392 1.98 334 2.73 324 2.83 376 2.93 371 3.07
 217  0.915  0.813  0.547- 411 1.84 407 2.18 362 2.68 336 2.72 364 3.23 366 3.30
 218  0.917  0.563  0.546- 410 1.84 457 2.22 317 2.68 349 2.71 365 2.85
 219  0.581  0.560  0.549- 389 1.89 427 2.09 386 2.69 333 2.75 380 2.84 323 2.86
 220  0.586  0.815  0.550- 431 1.91 388 2.06 325 2.76 331 2.81 379 2.93 384 3.03
 221  0.583  0.312  0.546- 428 1.90 392 2.11 334 2.75 324 2.76 375 2.77 370 2.88
 222  0.583  0.063  0.547- 426 1.85 393 2.21 322 2.72 329 2.72 376 2.94 371 3.08
 223  0.254  0.813  0.551- 391 1.82 425 2.08 321 2.77 372 2.86 330 2.91 374 3.20
 224  0.252  0.559  0.544- 419 1.91 390 2.02 318 2.63 328 2.78 368 2.88 373 3.21
 225  0.250  0.314  0.546- 420 1.85 395 2.30 369 2.66 327 2.72 319 2.73 378 3.04
 226  0.251  0.062  0.547- 418 1.84 394 2.24 320 2.68 326 2.72 367 3.03 377 3.26
 227  0.748  0.808  0.546- 400 1.84 417 2.03 325 2.67 362 2.75 379 3.14 364 3.30
 228  0.747  0.558  0.544- 432 1.95 399 1.98 323 2.61 349 2.77 380 2.86 365 3.23
 229  0.413  0.811  0.548- 398 1.96 424 1.97 321 2.71 331 2.79 372 2.91 384 3.13
 230  0.748  0.060  0.545- 423 1.84 402 2.21 322 2.63 332 2.68 371 3.16 383 3.36
 231  0.748  0.311  0.548- 422 1.98 401 1.98 370 2.66 324 2.74 335 2.84 363 3.03
 232  0.416  0.320  0.553- 397 1.96 415 1.98 375 2.66 369 2.73 319 2.99 334 2.99
 233  0.421  0.565  0.556- 408 1.89 414 2.14 386 2.65 368 2.70 333 2.92 318 3.05
 234  0.416  0.065  0.547- 416 1.84 396 2.25 320 2.74 329 2.77 376 2.94 367 3.07
 235  0.085  0.813  0.547- 412 1.84 405 2.18 330 2.67 336 2.74 374 3.18 366 3.33
 236  0.083  0.564  0.546- 413 1.84 404 2.22 317 2.69 328 2.73 373 2.83
 237  0.086  0.313  0.547- 421 1.84 403 2.24 327 2.68 337 2.76 378 2.89 381 3.35
 238  0.082  0.063  0.548- 433 1.84 406 2.22 338 2.70 326 2.71 315 3.18 377 3.28
 239  0.916  0.939  0.546- 411 1.84 387 2.20 332 2.65 338 2.70 364 3.25 366 3.33
 240  0.913  0.689  0.545- 410 1.84 407 2.23 362 2.63 336 2.72 365 2.82
 241  0.584  0.938  0.546- 431 1.84 393 2.25 322 2.68 329 2.69 379 2.96 384 3.08
 242  0.917  0.189  0.545- 430 1.85 409 2.17 335 2.66 337 2.68 383 3.30 315 3.31
 243  0.915  0.437  0.546- 429 1.85 457 2.25 349 2.67 317 2.70 363 2.93 381 3.36
 244  0.576  0.436  0.552- 389 1.95 428 2.04 375 2.63 333 2.75 370 2.95 323 3.01
 245  0.579  0.687  0.547- 427 1.91 388 2.13 386 2.66 331 2.70 380 2.83 325 2.84
 246  0.252  0.937  0.545- 425 1.83 394 2.22 320 2.67 326 2.73 372 2.93 374 3.33
 247  0.498  0.503  0.609- 408 2.11  11 2.16 389 2.24 386 2.75 375 2.98 333 3.26
 248  0.499  0.253  0.590- 397 1.99 392 2.05 375 2.64 334 2.65 376 2.96
 249  0.500  1.000  0.591- 396 2.00 393 2.00 329 2.57 376 2.76 384 2.82
 250  0.752  0.693  0.656-  28 2.05  15 2.13 400 2.37 365 3.03 380 3.14
 251  0.748  0.937  0.640- 402 1.80 364 2.49 379 2.53
 252  0.253  0.187  0.641- 395 1.74 367 2.52 377 2.56
 253  0.746  0.194  0.647- 401 1.99   3 2.08 371 2.68 383 2.73
 254  0.756  0.436  0.639- 399 1.97  14 2.01 363 2.61 370 2.79
 255  0.417  0.935  0.640- 396 1.79 384 2.53 372 2.58
 256  0.421  0.675  0.634-  42 2.03 398 2.04 386 2.56 368 2.62
 257  0.589  0.811  0.646- 388 1.93  17 2.09 379 2.65 384 2.78
 258  0.916  0.062  0.641- 387 1.80 383 2.49 315 2.50
 259  0.913  0.562  0.643- 457 1.79 382 2.45 365 2.54
 260  0.915  0.312  0.639- 409 1.80 381 2.50 363 2.52
 261  0.914  0.813  0.642- 407 1.79 364 2.50 366 2.51
 262  0.582  0.066  0.640- 393 1.79 371 2.51 376 2.53
 263  0.583  0.319  0.634- 392 1.96  27 2.03 375 2.54 370 2.67
 264  0.592  0.565  0.639- 389 1.98   2 2.07 380 2.63 386 2.82
 265  0.248  0.574  0.629- 390 1.99  45 2.04 368 2.54 373 2.55
 266  0.262  0.798  0.647- 391 1.95   4 2.07 372 2.82 374 2.92
 267  0.250  0.317  0.641- 395 1.94  35 2.06 378 2.59 369 2.64
 268  0.251  0.059  0.642- 394 1.79 367 2.49 377 2.50
 269  0.917  0.563  0.361- 435 1.97 340 2.79 316 2.79
 270  0.499  0.374  0.500- 415 1.97 428 2.00 355 2.79 333 2.81 334 2.81 375 2.86
 271  0.500  0.873  0.501- 424 1.98 431 1.99 331 2.68 357 2.82 329 2.83 384 3.27
 272  0.500  0.621  0.500- 414 1.98 427 1.98 333 2.71 356 2.79 386 2.82 331 2.94
 273  0.832  0.623  0.500- 432 1.89 410 2.05 349 2.76 316 2.79 362 2.87 365 3.10
 274  0.833  0.875  0.498- 417 1.95 411 2.01 339 2.74 362 2.76 332 2.81
 275  0.833  0.373  0.499- 422 1.90 429 2.04 359 2.77 335 2.78 349 2.83 363 3.14
 276  0.833  0.125  0.500- 423 1.95 430 2.02 335 2.77 332 2.78 358 2.78
 277  0.167  0.376  0.498- 420 1.90 421 2.02 351 2.72 328 2.76 327 2.87 378 3.30
 278  0.168  0.624  0.500- 419 1.89 413 2.07 328 2.78 352 2.79 330 2.84 373 3.07
 279  0.583  0.438  0.646- 389 2.11  11 2.11  46 2.19 375 2.88 370 2.99
 280  0.580  0.685  0.638- 388 1.87  48 2.11 386 2.61 380 2.76
 281  0.917  0.187  0.641- 409 1.79 383 2.49 315 2.52
 282  0.582  0.936  0.639- 393 1.80 384 2.50 379 2.51
 283  0.831  0.751  0.593- 400 1.86 407 2.10 362 2.71 365 2.79 364 2.89
 284  0.832  0.248  0.591- 401 1.84 409 2.12 335 2.65 363 2.81 383 2.87
 285  0.833  0.504  0.589- 399 1.83 457 2.06 349 2.59 365 2.78 363 2.96
 286  0.832  0.002  0.592- 402 1.99 387 2.02 332 2.58 383 2.86 364 2.92
 287  0.501  0.756  0.593- 398 1.99 388 2.01 331 2.66 384 2.73 386 2.93
 288  0.418  0.065  0.640- 396 1.80 367 2.51 376 2.54
 289  0.427  0.305  0.655-  37 2.14  22 2.15 397 2.31 375 2.92 369 3.39
 290  0.412  0.812  0.640- 398 1.94  23 2.08 372 2.60 384 2.69
 291  0.399  0.551  0.652-  19 2.10  26 2.11 408 2.16 368 2.80 386 3.46
 292  0.752  0.571  0.634- 399 1.91  15 2.10 365 2.61 380 2.68
 293  0.741  0.810  0.640- 400 1.98  28 2.04 379 2.59 364 2.69
 294  0.747  0.313  0.640- 401 2.01   3 2.06 370 2.62 363 2.74
 295  0.748  0.067  0.639- 402 1.80 371 2.47 383 2.48
 296  0.084  0.312  0.640- 403 1.80 381 2.49 378 2.51
 297  0.667  0.874  0.499- 431 1.97 417 2.00 325 2.74 350 2.76 322 2.81 379 3.24
 298  0.087  0.562  0.642- 404 1.80 382 2.46 373 2.54
 299  0.084  0.060  0.641- 406 1.80 377 2.50 315 2.50
 300  0.087  0.437  0.640- 404 1.79 378 2.51 381 2.53
 301  0.084  0.186  0.641- 403 1.79 377 2.50 315 2.50
 302  0.419  0.188  0.640- 397 2.00  22 2.01 376 2.63 367 2.68
 303  0.415  0.419  0.630-  37 2.03 408 2.07 375 2.54 369 2.59
 304  0.084  0.935  0.641- 406 1.80 374 2.48 366 2.49
 305  0.083  0.687  0.640- 405 1.80 382 2.45 373 2.51
 306  0.913  0.436  0.640- 457 1.80 363 2.52 381 2.53
 307  0.917  0.688  0.640- 407 1.80 382 2.45 365 2.51
 308  0.914  0.937  0.641- 387 1.80 364 2.47 366 2.50
 309  0.241  0.443  0.642- 390 1.91   8 2.09 378 2.63 369 2.93
 310  0.251  0.676  0.665-   4 2.06  45 2.09 373 3.08 368 3.11
 311  0.579  0.190  0.644- 392 1.90  25 2.14 376 2.66 371 2.71
 312  0.252  0.930  0.637- 394 1.80 374 2.46 372 2.49
 313  0.084  0.812  0.642- 405 1.79 374 2.47 366 2.53
 314  0.917  0.812  0.361- 434 1.97 341 2.79 339 2.79
 315  0.001  0.123  0.619- 299 2.50 301 2.50 258 2.50 281 2.52 202 2.89 203 2.95 238 3.18 182 3.20
                           196 3.30 242 3.31 409 3.43 387 3.43 406 3.43 403 3.45 433 3.89 430 3.91
 316  0.833  0.625  0.407-  83 2.75  64 2.79 273 2.79 126 2.79 105 2.79 269 2.79  93 2.79 138 2.79
                           139 2.79 150 2.80  53 2.88 458 3.42 446 3.42 435 3.42 434 3.42 432 3.45
 317  1.000  0.500  0.507- 198 2.62 195 2.67 218 2.68 236 2.69 243 2.70  75 2.84  74 2.84  64 2.90
                           142 2.91  84 2.91  61 2.92 164 3.01 410 3.39 413 3.39 429 3.41 421 3.41
 318  0.331  0.499  0.501- 224 2.63  81 2.70  65 2.70 204 2.70 146 2.74 155 2.77  80 2.81 168 2.82
                           213 2.83 188 2.84  58 2.85 233 3.05 408 3.36 449 3.41 419 3.42 415 3.44
 319  0.330  0.248  0.503- 184 2.65 200 2.70 193 2.72 225 2.73  51 2.73  76 2.75 154 2.78 145 2.82
                            68 2.87 167 2.87  81 2.92 232 2.99 397 3.32 418 3.36 420 3.42 448 3.44
 320  0.333  0.001  0.506- 201 2.59 246 2.67 226 2.68 191 2.71 234 2.74  76 2.78 144 2.84  78 2.85
                           152 2.85  89 2.90  56 2.92 166 2.96 416 3.34 425 3.38 418 3.40 424 3.41
 321  0.334  0.751  0.502- 205 2.71 229 2.71 147 2.74  78 2.75  69 2.76 156 2.76 223 2.77  80 2.81
                            57 2.83 169 2.84 189 2.87 215 2.92 391 3.36 414 3.41 398 3.41 424 3.42
 322  0.666  0.000  0.506- 207 2.59 230 2.63 241 2.68 222 2.72 185 2.77  79 2.81 297 2.81  52 2.84
                            92 2.85  86 2.89 148 2.90 170 2.96 426 3.37 417 3.37 423 3.39 431 3.39
 323  0.669  0.500  0.501- 228 2.61  82 2.70 209 2.71  54 2.71 150 2.76  91 2.79  88 2.80 172 2.81
                            90 2.82 219 2.86 187 2.87 244 3.01 389 3.34 422 3.41 458 3.41 432 3.42
 324  0.667  0.248  0.503- 206 2.63  79 2.73 231 2.74  55 2.75 221 2.76  71 2.79 190 2.80 149 2.81
                           216 2.83 158 2.86 171 2.88  82 2.92 426 3.41 401 3.42 428 3.43 423 3.43
 325  0.666  0.752  0.502- 208 2.65 227 2.67  73 2.72 297 2.74 220 2.76  53 2.78  90 2.81 151 2.82
                            87 2.84 245 2.84 173 2.85 186 3.00 400 3.35 431 3.38 427 3.39 454 3.46
 326  0.166  0.001  0.507- 210 2.57 192 2.67 238 2.71 226 2.72 246 2.73 181 2.76 140 2.85 183 2.86
                           152 2.88  60 2.89  89 2.93 174 2.99 425 3.37 418 3.39 433 3.39 412 3.44
 327  0.166  0.248  0.506- 211 2.61 196 2.64 237 2.68 225 2.72 184 2.72 181 2.78  51 2.85 277 2.87
                            62 2.88 141 2.89 154 2.95 175 2.98 420 3.37 418 3.39 433 3.39 421 3.46
 328  0.163  0.500  0.502- 214 2.57 195 2.68 236 2.73 142 2.75 277 2.76 224 2.78 278 2.78  61 2.78
                           213 2.84  65 2.85 176 2.86 155 2.93 390 3.32 421 3.39 419 3.42 413 3.42
 329  0.500  0.999  0.505- 249 2.57 241 2.69 191 2.72 222 2.72 234 2.77 197 2.82 271 2.83 144 2.84
                            92 2.86  56 2.86  86 2.86 178 2.95 424 3.38 416 3.39 431 3.39 426 3.40
 330  0.164  0.751  0.503- 194 2.62 235 2.67 183 2.72 212 2.75 143 2.77  59 2.82 156 2.82 278 2.84
                           177 2.90  69 2.90 215 2.90 223 2.91 391 3.34 412 3.37 413 3.43 419 3.45
 331  0.501  0.753  0.504- 287 2.66 189 2.67 271 2.68 245 2.70  73 2.76 147 2.78 229 2.79 220 2.81
                            87 2.86  57 2.91 180 2.91 272 2.94 431 3.37 398 3.38 424 3.41 427 3.42
 332  0.834  0.000  0.506- 286 2.58 239 2.65 230 2.68 182 2.72 276 2.78 185 2.79 274 2.81  66 2.85
                            52 2.88  70 2.90 148 2.93 159 2.98 417 3.36 423 3.36 430 3.41 411 3.41
 333  0.501  0.500  0.500- 188 2.61 272 2.71  88 2.71 146 2.73 244 2.75 219 2.75  91 2.77 160 2.80
                           270 2.81  58 2.83 233 2.92 247 3.26 453 3.41 428 3.43 442 3.44 415 3.45
 334  0.501  0.248  0.502- 248 2.65  71 2.72 216 2.73 193 2.73 197 2.73 221 2.75  68 2.81 270 2.81
                           145 2.81 179 2.85 158 2.85 232 2.99 397 3.36 426 3.39 428 3.42 452 3.45
 335  0.835  0.248  0.503- 284 2.65 242 2.66 153 2.71 276 2.77 275 2.78  85 2.78  55 2.80  67 2.81
                           231 2.84 157 2.89 190 2.89 149 2.94 401 3.34 430 3.37 429 3.43 422 3.45
 336  1.000  0.751  0.507- 199 2.57 240 2.72 217 2.72 194 2.72 235 2.74  75 2.77  77 2.78  63 2.87
                           143 2.88  83 2.93  59 2.93 165 2.99 413 3.39 410 3.39 412 3.40 411 3.40
 337  0.001  0.250  0.506- 203 2.58 196 2.67 242 2.68 153 2.74 237 2.76  74 2.77  72 2.79 141 2.87
                            62 2.89  67 2.90  85 2.92 163 2.97 421 3.39 429 3.39 433 3.40 430 3.42
 338  0.000  1.000  0.506- 202 2.59 192 2.67 239 2.70 238 2.70 182 2.70  77 2.80  72 2.80 140 2.88
                            66 2.89  70 2.90  60 2.91 162 2.98 430 3.40 411 3.40 412 3.41 433 3.41
 339  0.833  0.875  0.407- 274 2.74  70 2.78 151 2.78 125 2.79 104 2.79 314 2.79 101 2.79 139 2.79
                           159 2.79  63 2.80  52 2.84 446 3.42 434 3.42 444 3.42 455 3.42 417 3.48
 340  0.000  0.625  0.407-  75 2.72 269 2.79  93 2.79 114 2.79 136 2.79 164 2.79 165 2.79  59 2.79
                            83 2.80  64 2.80 142 2.81 435 3.42 434 3.42 438 3.42 439 3.42 413 3.53
 341  0.000  0.875  0.407-  77 2.77  70 2.78  60 2.79 314 2.79 133 2.79 101 2.79 135 2.79 165 2.79
                           162 2.79  63 2.81 143 2.81 434 3.42 439 3.42 455 3.42 436 3.42 411 3.58
 342  0.333  0.125  0.407-  76 2.74 132 2.79 134 2.79 124 2.79 103 2.79 166 2.79 167 2.79  68 2.79
                           152 2.80  51 2.81 144 2.83 440 3.42 441 3.42 447 3.42 448 3.42 416 3.47
 343  0.333  0.375  0.407- 154 2.74  58 2.77 110 2.79 131 2.79 111 2.79 123 2.79 167 2.79 168 2.79
                            65 2.81 145 2.84  81 2.88 441 3.42 442 3.42 448 3.42 449 3.42 415 3.43
 344  0.333  0.625  0.407- 155 2.73  57 2.78  69 2.79 130 2.79 109 2.79 122 2.79 102 2.79 168 2.79
                           169 2.79 146 2.88  80 2.92 442 3.42 443 3.42 449 3.42 450 3.42 414 3.45
 345  0.333  0.875  0.407-  78 2.75  89 2.78 129 2.79 121 2.79 108 2.79 100 2.79 169 2.79 166 2.79
                            56 2.79 156 2.84 147 2.85 443 3.42 450 3.42 440 3.42 447 3.42 425 3.49
 346  0.667  0.125  0.407- 148 2.76  79 2.77 128 2.79 107 2.79 120 2.79  99 2.79 170 2.79 171 2.79
                            92 2.82  71 2.84  55 2.85 444 3.42 445 3.42 451 3.42 452 3.42 426 3.53
 347  0.667  0.375  0.407- 149 2.75 158 2.76 106 2.79 127 2.79  98 2.79 119 2.79 171 2.79 172 2.79
                            54 2.83  88 2.85  82 2.89 445 3.42 458 3.42 453 3.42 452 3.42 428 3.47
 348  0.667  0.625  0.407- 150 2.74 126 2.79 105 2.79 118 2.79  97 2.79 172 2.79 173 2.79  91 2.79
                            87 2.80  53 2.84  90 2.88 458 3.42 446 3.42 453 3.42 454 3.42 427 3.43
 349  0.836  0.500  0.503- 285 2.59 243 2.67 218 2.71 273 2.76 228 2.77  64 2.78  84 2.79 187 2.81
                           275 2.83  54 2.84 138 2.88 150 2.93 399 3.36 422 3.40 432 3.41 429 3.41
 350  0.667  0.875  0.407- 297 2.76 151 2.77 125 2.79 104 2.79 117 2.79  96 2.79 173 2.79 170 2.79
                            86 2.79  52 2.82  73 2.84 446 3.42 454 3.42 444 3.42 451 3.42 417 3.50
 351  0.167  0.375  0.407- 277 2.72  61 2.78 111 2.79 137 2.79 123 2.79 113 2.79 176 2.79 175 2.79
                           141 2.79 154 2.82  65 2.85 448 3.42 449 3.42 437 3.42 438 3.42 420 3.44
 352  0.167  0.625  0.407-  59 2.76 142 2.78 278 2.79 122 2.79 102 2.79 114 2.79 136 2.79 176 2.79
                           177 2.79 155 2.80  69 2.87 449 3.42 450 3.42 438 3.42 439 3.42 419 3.46
 353  0.167  0.875  0.407-  60 2.77  89 2.78 183 2.79 121 2.79 133 2.79 100 2.79 135 2.79 177 2.79
                           174 2.79 143 2.80 156 2.85 450 3.42 439 3.42 447 3.42 436 3.42 425 3.46
 354  0.500  0.125  0.407- 197 2.78  68 2.78 120 2.79  99 2.79 132 2.79 134 2.79 178 2.79 179 2.79
                            92 2.80  71 2.82 144 2.82 451 3.42 452 3.42 440 3.42 441 3.42 416 3.49
 355  0.500  0.375  0.407-  58 2.77  98 2.79 119 2.79 110 2.79 131 2.79 160 2.79 179 2.79 270 2.79
                           158 2.79  88 2.82 145 2.88 452 3.42 453 3.42 441 3.42 442 3.42 415 3.44
 356  0.500  0.625  0.407-  57 2.77  87 2.78 118 2.79  97 2.79 130 2.79 109 2.79 160 2.79 180 2.79
                           272 2.79  91 2.84 146 2.90 453 3.42 454 3.42 442 3.42 443 3.42 414 3.44
 357  0.500  0.875  0.407-  56 2.77  86 2.77 117 2.79 129 2.79  96 2.79 108 2.79 180 2.79 178 2.79
                           271 2.82 147 2.85  73 2.85 454 3.42 443 3.42 451 3.42 440 3.42 424 3.52
 358  0.833  0.125  0.407-  85 2.76 148 2.78 276 2.78 128 2.79 107 2.79 116 2.79  95 2.79 159 2.79
                           157 2.79  66 2.79  55 2.84 444 3.42 445 3.42 455 3.42 456 3.42 423 3.53
 359  0.833  0.375  0.407- 275 2.77  84 2.78 106 2.79 127 2.79  94 2.79 115 2.79 157 2.79 138 2.79
                            67 2.79 149 2.83  54 2.84 445 3.42 458 3.42 456 3.42 435 3.42 422 3.45
 360  0.167  0.125  0.407-  62 2.76 181 2.77 124 2.79 103 2.79 112 2.79 161 2.79 174 2.79 175 2.79
                           140 2.80 152 2.81  51 2.81 447 3.42 448 3.42 436 3.42 437 3.42 418 3.57
 361  0.000  0.375  0.407-  74 2.75  61 2.78  94 2.79 115 2.79 137 2.79 113 2.79 163 2.79 164 2.79
                            84 2.79 141 2.80  67 2.80 435 3.42 456 3.42 438 3.42 437 3.42 429 3.54
 362  0.836  0.752  0.503- 240 2.63 217 2.68 283 2.71 227 2.75  63 2.75 274 2.76  83 2.80  53 2.84
                           139 2.87 273 2.87 151 2.87 186 2.96 400 3.30 411 3.37 410 3.43 434 3.45
 363  0.837  0.373  0.604- 306 2.52 260 2.52 254 2.61 294 2.74 284 2.81 153 2.87 243 2.93 187 2.93
                           285 2.96 231 3.03 275 3.14 409 3.39 401 3.42 457 3.45 399 3.49 429 3.52
 364  0.832  0.876  0.618- 308 2.47 251 2.49 261 2.50 293 2.69 283 2.89 286 2.92 185 3.16 217 3.23
                           239 3.25 227 3.30 387 3.44 400 3.44 402 3.45 407 3.48 411 3.91 366 3.96
 365  0.841  0.627  0.603- 307 2.51 259 2.54 292 2.61 285 2.78 283 2.79 240 2.82 218 2.85 186 2.85
                           250 3.03 273 3.10 228 3.23 407 3.33 457 3.36 399 3.42 410 3.44 400 3.53
 366  0.999  0.875  0.622- 304 2.49 308 2.50 261 2.51 313 2.53 199 2.84 202 2.89 217 3.30 235 3.33
                           239 3.33 192 3.36 407 3.40 405 3.42 406 3.45 387 3.45 364 3.96 374 3.96
 367  0.332  0.120  0.613- 268 2.49 288 2.51 252 2.52 302 2.68 201 2.76 226 3.03 200 3.06 234 3.07
                           184 3.13 193 3.24 394 3.36 396 3.36 395 3.43  76 3.45 397 3.55 418 3.75
 368  0.335  0.624  0.595- 265 2.54 205 2.58 256 2.62 233 2.70  80 2.73 215 2.75 291 2.80 204 2.84
                           224 2.88 189 2.92 310 3.11 408 3.37 398 3.42 414 3.44 419 3.46 391 3.51
 369  0.326  0.374  0.593- 303 2.59 267 2.64 213 2.65 225 2.66 200 2.68  81 2.70 232 2.73 204 2.75
                           309 2.93 188 3.12 420 3.29  37 3.39 289 3.39 395 3.40 408 3.42 390 3.42
 370  0.671  0.372  0.595- 294 2.62 231 2.66 263 2.67 209 2.71 187 2.74  82 2.74 254 2.79 206 2.79
                           221 2.88 244 2.95 279 2.99 422 3.36 401 3.39 389 3.44 428 3.45 392 3.47
 371  0.665  0.124  0.612- 295 2.47 262 2.51 253 2.68 311 2.71 206 2.81 207 2.83 190 2.99 216 3.07
                           222 3.08 230 3.16 392 3.37  79 3.37 393 3.39 402 3.39 401 3.50 426 3.75
 372  0.334  0.879  0.603- 312 2.49 255 2.58 290 2.60 201 2.72 266 2.82 223 2.86 191 2.88 229 2.91
                           246 2.93  78 3.13 205 3.13 394 3.33 396 3.34 391 3.47 398 3.48 424 3.54
 373  0.159  0.627  0.602- 305 2.51 298 2.54 265 2.55 212 2.76 194 2.79 214 2.80 236 2.83 215 2.90
                           278 3.07 310 3.08 224 3.21 405 3.32 404 3.37 413 3.42 390 3.49 391 3.55
 374  0.166  0.873  0.619- 312 2.46 313 2.47 304 2.48 212 2.83 210 2.92 266 2.92 235 3.18 223 3.20
                           192 3.30 246 3.33 391 3.42 405 3.43 394 3.44 406 3.45 412 3.91 366 3.96
 375  0.502  0.371  0.595- 263 2.54 303 2.54 244 2.63 248 2.64 232 2.66 221 2.77 270 2.86 279 2.88
                           188 2.88 289 2.92 247 2.98 392 3.39 428 3.39 397 3.42 415 3.48 408 3.53
 376  0.500  0.122  0.606- 262 2.53 288 2.54 302 2.63 311 2.66 249 2.76 216 2.93 234 2.94 222 2.94
                           248 2.96 193 3.10 197 3.19 393 3.33 396 3.36 392 3.44 397 3.51 426 3.62
 377  0.168  0.123  0.621- 299 2.50 268 2.50 301 2.50 252 2.56 210 2.91 211 2.95 226 3.26 238 3.28
                           184 3.33 196 3.36 395 3.41 394 3.44 406 3.46 403 3.47 367 3.89 418 3.95
 378  0.163  0.372  0.608- 300 2.51 296 2.51 267 2.59 309 2.63 211 2.77 237 2.89 214 3.00 213 3.02
                           225 3.04 195 3.06 277 3.30 403 3.34 390 3.42 395 3.47 404 3.47 421 3.61
 379  0.665  0.881  0.607- 282 2.51 251 2.53 293 2.59 257 2.65 207 2.71 185 2.92 220 2.93 241 2.96
                           208 3.14 227 3.14 297 3.24 393 3.32 402 3.36 388 3.49 400 3.56 431 3.60
 380  0.666  0.627  0.594- 208 2.58 264 2.63 186 2.65 292 2.68  90 2.73 280 2.76 245 2.83 219 2.84
                           228 2.86 209 2.98 250 3.14 389 3.34 388 3.37 427 3.41 432 3.41  15 3.42
 381  0.000  0.375  0.623- 296 2.49 260 2.50 300 2.53 306 2.53 198 2.89 203 2.94 153 3.35 237 3.35
                           195 3.35 243 3.36 404 3.45 409 3.45 457 3.45 403 3.50 378 3.89 363 3.90
 382  1.000  0.622  0.646- 305 2.45 307 2.45 259 2.45 298 2.46 198 3.17 199 3.35 457 3.56 404 3.57
                           405 3.67 407 3.70 365 3.98 373 3.99 317 4.98 336 5.07
 383  0.834  0.125  0.620- 295 2.48 258 2.49 281 2.49 253 2.73 286 2.86 284 2.87 190 3.17 182 3.24
                           242 3.30 230 3.36 401 3.42 402 3.43 387 3.44 409 3.47 430 3.93 315 3.95
 384  0.500  0.876  0.610- 282 2.50 255 2.53 290 2.69 287 2.73 257 2.78 249 2.82 220 3.03 241 3.08
                           191 3.08 229 3.13 271 3.27 393 3.40 396 3.40 388 3.46 398 3.48 431 3.70
 385  0.000  0.125  0.407-  72 2.74  62 2.78 116 2.79  95 2.79 112 2.79 161 2.79 162 2.79 163 2.79
                            85 2.79  66 2.81 140 2.81 455 3.42 456 3.42 436 3.42 437 3.42 430 3.57
 386  0.504  0.625  0.594- 256 2.56 280 2.61 233 2.65 245 2.66 219 2.69 247 2.75 189 2.77 272 2.82
                           264 2.82 287 2.93 427 3.37 388 3.40 389 3.45 291 3.46 414 3.46 398 3.48
 387  0.916  1.000  0.604- 308 1.80 258 1.80 202 2.00 286 2.02 239 2.20 182 2.20 315 3.43 383 3.44
                           364 3.44 366 3.45 332 3.51 338 3.53
 388  0.585  0.750  0.599- 280 1.87 257 1.93 208 1.95 287 2.01 220 2.06 245 2.13 380 3.37 386 3.40
                           384 3.46 379 3.49 331 3.49 325 3.49
 389  0.591  0.501  0.594- 209 1.81 219 1.89 244 1.95 264 1.98 279 2.11 247 2.24  11 3.13 380 3.34
                           323 3.34 370 3.44 386 3.45 333 3.51 375 3.58
 390  0.242  0.499  0.594- 214 1.83 309 1.91 213 1.94 265 1.99 224 2.02 204 2.16 328 3.32 378 3.42
                           369 3.42 318 3.49 373 3.49 368 3.55
 391  0.250  0.753  0.592- 223 1.82 212 1.87 266 1.95 215 1.96 205 2.05 330 3.34 321 3.36 374 3.42
                           372 3.47 368 3.51 373 3.55
 392  0.584  0.247  0.597- 206 1.88 311 1.90 263 1.96 216 1.98 248 2.05 221 2.11 371 3.37 375 3.39
                           324 3.43 376 3.44 370 3.47 334 3.47
 393  0.583  0.001  0.604- 262 1.79 282 1.80 249 2.00 207 2.01 222 2.21 241 2.25 379 3.32 376 3.33
                           371 3.39 384 3.40 329 3.55 322 3.56
 394  0.249  0.998  0.604- 268 1.79 312 1.80 210 1.98 201 2.04 246 2.22 226 2.24 372 3.33 367 3.36
                           377 3.44 374 3.44 326 3.53 320 3.56
 395  0.249  0.246  0.604- 252 1.74 211 1.94 267 1.94 200 2.06 184 2.13 225 2.30 369 3.40 377 3.41
                           367 3.43 378 3.47 327 3.52 319 3.58
 396  0.417  0.000  0.605- 255 1.79 288 1.80 249 2.00 201 2.00 234 2.25 191 2.26 372 3.34 376 3.36
                           367 3.36 384 3.40 329 3.57 320 3.57
 397  0.415  0.249  0.591- 193 1.85 200 1.90 232 1.96 248 1.99 302 2.00 289 2.31 319 3.32 334 3.36
                           375 3.42 369 3.49 376 3.51 367 3.55
 398  0.417  0.750  0.595- 205 1.94 290 1.94 229 1.96 287 1.99 189 2.01 256 2.04 331 3.38 321 3.41
                           368 3.42 386 3.48 372 3.48 384 3.48
 399  0.757  0.503  0.596- 285 1.83 292 1.91 254 1.97 228 1.98 187 2.07 209 2.13 349 3.36 365 3.42
                           363 3.49 380 3.49 323 3.53 370 3.55
 400  0.752  0.752  0.591- 227 1.84 283 1.86 186 1.96 293 1.98 208 2.05 250 2.37  28 3.13 362 3.30
                           325 3.35 364 3.44 380 3.46 365 3.53 379 3.56
 401  0.754  0.248  0.594- 284 1.84 190 1.94 231 1.98 253 1.99 294 2.01 206 2.15   3 3.05 335 3.34
                           370 3.39 383 3.42 324 3.42 363 3.42 371 3.50
 402  0.750  0.002  0.604- 295 1.80 251 1.80 286 1.99 207 2.02 230 2.21 185 2.27 379 3.36 371 3.39
                           383 3.43 364 3.45 332 3.55 322 3.56
 403  0.084  0.248  0.604- 301 1.79 296 1.80 203 1.99 211 2.03 196 2.19 237 2.24 378 3.34 315 3.45
                           377 3.47 381 3.50 327 3.52 337 3.53
 404  0.081  0.501  0.603- 300 1.79 298 1.80 198 1.95 214 2.05 236 2.22 195 2.23 373 3.37 381 3.45
                           378 3.47 317 3.47 382 3.57 328 3.61
 405  0.080  0.751  0.603- 313 1.79 305 1.80 199 1.94 212 2.16 235 2.18 194 2.21 373 3.32 366 3.42
                           374 3.43 336 3.47 330 3.59 382 3.67
 406  0.083  0.998  0.603- 304 1.80 299 1.80 202 2.01 210 2.02 192 2.18 238 2.22 315 3.43 366 3.45
                           374 3.45 377 3.46 326 3.51 338 3.52
 407  0.918  0.751  0.603- 261 1.79 307 1.80 199 1.95 283 2.10 217 2.18 240 2.23 365 3.33 366 3.40
                           364 3.48 336 3.48 362 3.59 382 3.70
 408  0.412  0.497  0.593- 204 1.85 188 1.88 233 1.89 303 2.07 247 2.11 291 2.16 318 3.36 368 3.37
                           369 3.42 333 3.50 375 3.53 386 3.59
 409  0.920  0.249  0.603- 281 1.79 260 1.80 203 1.95 284 2.12 242 2.17 153 2.21 363 3.39 315 3.43
                           381 3.45 383 3.47 337 3.48 335 3.59
 410  0.918  0.625  0.506- 218 1.84 240 1.84  75 1.94 273 2.05  83 2.10  64 2.11 317 3.39 336 3.39
                           349 3.42 362 3.43 365 3.44 340 3.55 316 3.59
 411  0.917  0.875  0.507- 217 1.84 239 1.84  77 1.98 274 2.01  70 2.11  63 2.12 362 3.37 336 3.40
                           338 3.40 332 3.41 341 3.58 339 3.59 364 3.91 366 3.97
 412  0.083  0.875  0.507- 192 1.84 235 1.84  77 1.97 183 2.03  60 2.11 143 2.11 330 3.37 336 3.40
                           338 3.41 326 3.44 341 3.58 353 3.59 374 3.91 366 3.98
 413  0.081  0.626  0.506- 236 1.84 194 1.85  75 1.93 278 2.07  59 2.10 142 2.11 336 3.39 317 3.39
                           373 3.42 328 3.42 330 3.43 340 3.53 352 3.60
 414  0.417  0.626  0.501-  57 1.91  80 1.92 189 1.95 146 1.97 272 1.98 233 2.14 321 3.41 368 3.44
                           356 3.44 344 3.45 333 3.46 331 3.46 386 3.46 318 3.48
 415  0.416  0.374  0.501- 145 1.92  81 1.94  58 1.96 270 1.97 232 1.98 188 2.06 343 3.43 318 3.44
                           355 3.44 333 3.45 334 3.46 319 3.48 375 3.48 369 3.49
 416  0.416  0.122  0.503- 234 1.84  76 1.96 144 1.96 197 1.98 193 2.03  68 2.07 320 3.34 329 3.39
                           334 3.46 319 3.47 342 3.47 354 3.49 376 3.68 367 3.87
 417  0.751  0.879  0.503- 185 1.82 274 1.95  52 1.95 297 2.00 227 2.03 151 2.09 332 3.36 322 3.37
                           325 3.47 362 3.48 339 3.48 350 3.50 379 3.72 364 3.96
 418  0.249  0.124  0.507- 226 1.84 184 1.87 181 1.96  76 2.01 152 2.11  51 2.13 319 3.36 326 3.39
                           327 3.39 320 3.40 360 3.57 342 3.60 367 3.75 377 3.95
 419  0.248  0.624  0.503- 278 1.89 224 1.91 215 1.97  69 1.99 155 1.99  80 2.08 328 3.42 318 3.42
                           330 3.45 368 3.46 352 3.46 321 3.48 344 3.52 373 3.65
 420  0.247  0.373  0.503- 225 1.85 277 1.90 154 1.97 213 1.98  65 2.06  81 2.08 369 3.29 327 3.37
                           319 3.42 351 3.44 328 3.45 318 3.46 343 3.53 378 3.71
 421  0.082  0.375  0.506- 237 1.84 195 1.84  74 1.95 277 2.02 141 2.10  61 2.11 337 3.39 328 3.39
                           317 3.41 327 3.46 361 3.55 351 3.59 378 3.61 381 4.00
 422  0.753  0.376  0.503- 275 1.90 187 1.92 231 1.98  54 1.99 149 2.00  82 2.06 370 3.36 349 3.40
                           323 3.41 335 3.45 359 3.45 324 3.49 347 3.52 363 3.64
 423  0.751  0.122  0.505- 230 1.84 190 1.94 276 1.95  79 2.01 148 2.02  55 2.11 332 3.36 322 3.39
                           324 3.43 335 3.46 358 3.53 346 3.55 371 3.79 383 3.96
 424  0.416  0.876  0.504- 191 1.85 229 1.97  78 1.97 271 1.98  56 2.00 147 2.09 329 3.38 320 3.41
                           331 3.41 321 3.42 345 3.51 357 3.52 372 3.54 384 3.75
 425  0.249  0.879  0.502- 246 1.83 183 1.93  89 1.94  78 2.01 156 2.07 223 2.08 326 3.37 320 3.38
                           353 3.46 330 3.48 321 3.49 345 3.49 372 3.63 374 4.01
 426  0.583  0.123  0.505- 222 1.85 216 1.93  79 1.96 197 2.00  92 2.02  71 2.09 322 3.37 334 3.39
                           329 3.40 324 3.41 346 3.53 354 3.53 376 3.62 371 3.75
 427  0.584  0.627  0.501-  87 1.91 245 1.91  90 1.93 272 1.98  91 2.00 219 2.09 386 3.37 325 3.39
                           380 3.41 331 3.42 348 3.43 356 3.44 333 3.45 323 3.49
 428  0.584  0.373  0.502- 221 1.90  82 1.94 158 1.95 270 2.00  88 2.02 244 2.04 375 3.39 334 3.42
                           324 3.43 333 3.43 370 3.45 323 3.46 347 3.47 355 3.48
 429  0.918  0.374  0.506- 153 1.85 243 1.85  74 1.94 275 2.04  67 2.09  84 2.10 337 3.39 317 3.41
                           349 3.41 335 3.43 363 3.52 361 3.54 359 3.59 381 4.01
 430  0.918  0.125  0.507- 182 1.84 242 1.85  72 1.97 276 2.02  66 2.11  85 2.12 335 3.37 338 3.40
                           332 3.41 337 3.42 385 3.57 358 3.59 315 3.91 383 3.93
 431  0.584  0.876  0.506- 241 1.84 220 1.91 297 1.97 271 1.99  86 2.06  73 2.10 331 3.37 325 3.38
                           322 3.39 329 3.39 350 3.55 357 3.56 379 3.60 384 3.70
 432  0.752  0.624  0.503- 273 1.89 228 1.95 186 1.96  53 1.98 150 1.99  90 2.06 380 3.41 349 3.41
                           323 3.42 316 3.45 362 3.46 325 3.51 348 3.51 365 3.67
[...]
  273            m_sumb_d                              0.356172                       42   5
  274          m_sumb_d                              0.000554                          7   4
  275        setdij_                               5.163184                          140   3
  276          m_sumb_d                              1.200400                        140   4
  277        set_dd_magatom                        0.000034                            7   3
  278        set_dd_paw                            0.116869                            7   3
  279          set_rsgf_all                          0.000013                          7   4
  280          m_sumb_d                              0.114465                         49   4
  281        strkin                                0.039924                            7   3
  282          m_sumb_d                              0.002846                          7   4
  283        strelo                                0.041029                            7   3
  284          m_sumb_d                              0.003273                         14   4
  285        strnlr                               48.264365                            7   3
  286          rspher_all                            2.228987                         63   4
  287          phaser                                0.000030                         63   4
  288          rpro_isp                             45.383342                         63   4
  289            fftwav_mpi                           34.321831                     8820   5
  290              fft3d_mpi                            30.726346                   8820   6
  291                fftbrc_mpi                           26.245161                 8820   7
  292                  fftbas_plan_mpi                      26.216189               8820   8
  293                    dfftw_execute                        13.326776            26460   9
  294                    map_forward                           7.434175            17640   9
  295                      map_gather                            0.751589           8820  10
  296                      m_alltoallv_z                         2.718013           8820  10
  297                      map_scatter                           1.588381           8820  10
  298            rpromu                               10.947851                     2205   5
  299              rpromu_gemm                           3.407485                 500535   6
  300              m_sumb_d                              1.254572                   8820   6
  301          m_sumb_d                              0.504679                          7   4
  302        m_sumb_d                              0.034488                           49   3
  303        fft3d_mpi                             3.924366                          497   3
  304          fftbrc_mpi                            3.801486                        497   4
  305            fftbas_plan_mpi                       3.799857                      497   5
  306              dfftw_execute                         0.604280                   1491   6
  307              map_forward                           1.426093                    490   6
  308                map_gather                            0.030757                  245   7
  309                m_alltoallv_z                         1.246050                  245   7
  310                map_scatter                           0.144738                  245   7
  311              map_backward                          1.414307                    504   6
  312                map_gather                            0.118903                  252   7
  313                m_alltoallv_z                         1.222782                  252   7
  314                map_scatter                           0.067700                  252   7
  315        ggaall_grid                           1.344465                            7   3
  316        forhar                                2.871765                            7   3
  317          m_sumb_d                              0.054953                          7   4
  318        strehar                               0.042311                            7   3
  319          m_sumb_d                              0.002586                          7   4
  320        m_bcast_d                             0.007459                           14   3
  321      potlok                               68.599450                             13   2
  322        fft3d_mpi                            23.503551                         2741   3
  323          fftbrc_mpi                           22.811149                       2741   4
  324            fftbas_plan_mpi                      22.801305                     2741   5
  325              dfftw_execute                         3.430306                   8223   6
  326              map_forward                           8.385641                   2754   6
  327                map_gather                            0.178964                 1390   7
  328                m_alltoallv_z                         7.370057                 1390   7
  329                map_scatter                           0.810956                 1390   7
  330              map_backward                          9.017827                   2728   6
  331                map_gather                            0.661546                 1364   7
  332                m_alltoallv_z                         7.961822                 1364   7
  333                map_scatter                           0.368534                 1364   7
  334        ggaall_grid                          19.241906                          237   3
  335        m_sumb_d                              0.309081                         1224   3
  336        fewald                                0.019603                           26   3
  337          rsp                                   0.018169                         26   4
  338          rcp                                   0.001219                         26   4
  339        pothar                                0.020585                           13   3
  340          m_sumb_d                              0.014099                         13   4
  341        m_bcast_d                             0.046754                           13   3
  342      potlok_metagga                        0.000015                             13   2
  343      set_dd_magatom                        0.000007                              7   2
  344      set_dd_paw                            0.157446                             13   2
  345        set_rsgf_all                          0.000026                           13   3
  346        m_sumb_d                              0.154487                           91   3
  347      m_sumb_d                             52.001805                           3518   2
  348      wavpre_noio                           1.651811                              6   2
  349        stufak                                1.569613                            6   3
  350      eddiag                              134.087497                              6   2
  351        overl                                 0.008101                            6   3
  352        redis_proj                            1.158457                           18   3
  353          m_alltoall_d                          1.151293                       2520   4
  354        fftwav_mpi                            3.296575                          840   3
  355          fft3d_mpi                             2.952223                        840   4
  356            fftbrc_mpi                            2.504490                      840   5
  357              fftbas_plan_mpi                       2.501755                    840   6
  358                dfftw_execute                         1.270653                 2520   7
  359                map_forward                           0.725673                 1680   7
  360                  map_gather                            0.074394                840   8
  361                  m_alltoallv_z                         0.269330                840   8
  362                  map_scatter                           0.149243                840   8
  363        hamilt_local                          2.989108                          840   3
  364          vhamil                                0.391085                        840   4
  365          kinhamil                              2.591082                        840   4
  366            fftext_mpi                            2.561420                      840   5
  367              fft3d_mpi                             2.505357                    840   6
  368                fftbrc_mpi                            2.114148                  840   7
  369                  fftbas_plan_mpi                       2.111222                840   8
  370                    dfftw_execute                         1.096416             2520   9
  371                    map_backward                          0.510268             1680   9
  372                      map_gather                            0.130995            840  10
  373                      m_alltoallv_z                         0.248883            840  10
  374                      map_scatter                           0.115538            840  10
  375        redis_pw                              1.764566                          846   3
  376          m_alltoall_d                          1.706508                       2520   4
  377        orth1                                 1.708202                          420   3
  378        m_sumb_d                              1.273072                            6   3
  379        shift_bands_between_low_high          0.000008                            6   3
  380        lincom                                1.848826                            6   3
 
 Flat profile
 ============
 
             routine name                   CPU           calls
 ---------------------------------------------------------------
 edwav                                7127.463561         670
 potlok                               1213.746272         683
 m_alltoall_d                          626.342846     1610420
 dfftw_execute                         541.637584     1151373
 lincom                                520.142627        2030
 m_sumb_d                              500.166322      674896
 total_time                            491.353896           1
 m_alltoallv_z                         381.050975      385151
 orth1                                 323.162809       95200
 fftbas_plan_mpi                       241.624988      383791
 choleski                              233.297878         677
 eddiag                                229.729367         348
 fft3d_mpi                             178.008281      383791
 ggaall_grid                           150.341724         914
 fftwav_mpi                             94.772453      234660
 eccp                                   89.948079      187600
 map_scatter                            78.636612      385151
 racc0                                  69.826376       46900
 rpro1                                  66.402058       46900
 map_forward                            65.026136      522162
 map_gather                             51.215587      385151
 pw_charge                              35.467652       79400
 setdij_                                25.083925         866
 vhamil                                 22.547310       48720
 augmentation_charge                    21.391739         677
 w1_dscal                               15.481416       46900
 force_and_stress                       12.619061           7
 redis_pw                               10.342516      191122
 rpromu                                  9.070241        3185
 m_bcast_z                               8.683758        2381
 orthch                                  7.207023         677
 fftext_mpi                              6.675156       95620
 rpromu_gemm                             4.920120      722995
 redis_proj                              4.770353      148130
 rspher_all                              3.201365          92
 overl                                   2.999536       48260
 forloc                                  2.820294           7
 forhar                                  2.816812           7
 m_bcast_d                               2.517693         713
 map_backward                            2.075153      245420
 elmin_all                               2.001641           7
 stufak                                  1.833367           7
 kinhamil                                1.692448       48720
 soft_charge                             1.543752         677
 densta                                  1.289933         678
 fftbrc_mpi                              1.264232      383791
 rsp                                     0.967213        1373
 depsum                                  0.759300         677
 hamilt_local                            0.386638       48720
 pothar                                  0.340132         683
 set_dd_paw                              0.224653         690
 set_charge                              0.193043         677
 rpro_isp                                0.171378          91
 strnlr                                  0.147328           7
 fft_gq                                  0.112170         677
 wavpre_noio                             0.082198           6
 rcp                                     0.075387        1373
 fewald                                  0.065837        1373
 fornlr                                  0.040282           7
 strehar                                 0.039725           7
 strelo                                  0.037756           7
 strkin                                  0.037078           7
 redis_pw_all                            0.004242         670
 redis_pw_over_bands                     0.002585         683
 set_rsgf_all                            0.001622         690
 fordep                                  0.001532           7
 potlok_metagga                          0.001318         683
 brgrid                                  0.000721           1
 phaser                                  0.000401         426
 crpa_reader                             0.000314           1
 rotate_active_occupied_orbital          0.000106           7
 proall                                  0.000105           7
 set_dd_magatom                          0.000041          14
 vectorpot                               0.000028           1
 shift_bands_between_low_high            0.000018          13
 ---------------------------------------------------------------
  summed up times    13487.9060771465     
 
 Accumulative profile
 ====================
 
             routine name                   CPU           calls
 ---------------------------------------------------------------
 total_time                          13485.875557           1
 elmin_all                           12613.833145           7
 edwav                               10130.619103         670
 potlok                               1786.604590         683
 fft3d_mpi                            1538.509029      383791
 fftbrc_mpi                           1360.500748      383791
 fftbas_plan_mpi                      1359.236516      383791
 fftwav_mpi                            919.107829      234660
 orthch                                759.722527         677
 m_alltoall_d                          626.342846     1610420
 dfftw_execute                         541.637584     1151373
 lincom                                520.142627        2030
 m_sumb_d                              500.166322      674896
 eddiag                                468.647218         348
 set_charge                            392.159377         677
 m_alltoallv_z                         381.050975      385151
 map_forward                           364.168550      522162
 soft_charge                           359.130055         677
 redis_proj                            329.124863      148130
 orth1                                 323.162809       95200
 redis_pw                              312.330852      191122
 fftext_mpi                            288.995459       95620
 choleski                              233.297878         677
 map_backward                          213.835913      245420
 hamilt_local                          171.831800       48720
 ggaall_grid                           150.341724         914
 kinhamil                              148.897853       48720
 eccp                                  101.911464      187600
 force_and_stress                       95.032623           7
 racc0                                  94.892740       46900
 map_scatter                            78.636612      385151
 rpro1                                  76.799489       46900
 rpro_isp                               65.586810          91
 map_gather                             51.215587      385151
 redis_pw_over_bands                    50.913733         683
 redis_pw_all                           50.911148         670
 strnlr                                 48.264365           7
 pw_charge                              35.467652       79400
 setdij_                                33.383237         866
 augmentation_charge                    31.568881         677
 vhamil                                 22.547310       48720
 fornlr                                 16.133237           7
 rpromu                                 15.828374        3185
 w1_dscal                               15.481416       46900
 m_bcast_z                               8.683758        2381
 set_dd_paw                              8.642298         690
 densta                                  5.527705         678
 proall                                  5.085752           7
 rpromu_gemm                             4.920120      722995
 fft_gq                                  3.500416         677
 rspher_all                              3.201365          92
 overl                                   2.999536       48260
 forloc                                  2.884898           7
 forhar                                  2.871765           7
 m_bcast_d                               2.517693         713
 stufak                                  1.833367           7
 wavpre_noio                             1.651811           6
 fordep                                  1.545169           7
 fewald                                  1.338463        1373
 depsum                                  1.267397         677
 pothar                                  1.158148         683
 rsp                                     0.967213        1373
 rcp                                     0.075387        1373
 strehar                                 0.042311           7
 strelo                                  0.041029           7
 strkin                                  0.039924           7
 set_rsgf_all                            0.001622         690
 potlok_metagga                          0.001318         683
 brgrid                                  0.000721           1
 phaser                                  0.000401         426
 crpa_reader                             0.000314           1
 rotate_active_occupied_orbital          0.000106           7
 set_dd_magatom                          0.000041          14
 vectorpot                               0.000028           1
 shift_bands_between_low_high            0.000018          13
 ---------------------------------------------------------------
 
Profiling took  10.010946  3.262620  0.007404  0.006663 seconds
Profiling took  11.323174 seconds
