 vasp.6.3.2 27Jun22 (build Jan 03 2024 23:25:20) gamma-only                     
  
 executed on           IFC15_impi date 2024.01.11  03:35:05
 running  120 mpi-ranks, with    1 threads/rank
 distrk:  each k-point on  120 cores,    1 groups
 distr:  one band on NCORE=   1 cores,  120 groups


--------------------------------------------------------------------------------------------------------


 INCAR:
   ENCUT = 500.000000
   SIGMA = 0.010000
   EDIFF = 1.00e-05
   ALGO = A
   ISMEAR = 0
   NELM = 200
   NSW = 999
   LCHARG = .FALSE.
   LWAVE = .FALSE.
   LREAL = Auto
   IBRION = 5
   POTIM = 0.015
   NFREE = 2
   ISYM = 0
   EDIFFG = -0.05
   GGA = BF
   LUSE_VDW = .TRUE.
   ZAB_VDW = -1.8867
   LBEEFENS = .TRUE.

 POTCAR:    PAW_PBE H 15Jun2001                   
 POTCAR:    PAW_PBE O 08Apr2002                   
 -----------------------------------------------------------------------------
|                                                                             |
|               ----> ADVICE to this user running VASP <----                  |
|                                                                             |
|     You have switched on vdW-DFT.                                           |
|     This routine was written and supplied by Jiri Klimes. We recommend      |
|     that you carefully read and cite the following publications:            |
|       J. Klimes, D.R. Bowler, A. Michelides                                 |
|          J. Phys.: Cond Matt. 22 022201 (2010)                              |
|       J. Klimes, D.R. Bowler, A. Michelides                                 |
|          Phys. Rev. B. 83, 195131 (2011)                                    |
|     and references therein.                                                 |
|                                                                             |
 -----------------------------------------------------------------------------

 POTCAR:    PAW_PBE H 15Jun2001                   
   SHA256 =  030f79b5d3ab3cf0e668861823c8fb652ff669f3e15e46930bd03bfd63a607b6 H/POTCAR              
   COPYR  = (c) Copyright 15Jun2001 Georg Kresse                                                    
   COPYR  = This file is part of the software VASP. Any use, copying, and all other rights are regul
   COPYR  = If you do not have a valid VASP license, you may not use, copy or distribute this file. 
   VRHFIN =H: ultrasoft test                                                                        
   LEXCH  = PE                                                                                      
   EATOM  =    12.4884 eV,    0.9179 Ry                                                             
                                                                                                    
   TITEL  = PAW_PBE H 15Jun2001                                                                     
   LULTRA =        F    use ultrasoft PP ?                                                          
   IUNSCR =        0    unscreen: 0-lin 1-nonlin 2-no                                               
   RPACOR =    0.000    partial core radius                                                         
   POMASS =    1.000; ZVAL   =    1.000    mass and valenz                                          
   RCORE  =    1.100    outmost cutoff radius                                                       
   RWIGS  =    0.700; RWIGS  =    0.370    wigner-seitz radius (au A)                               
   ENMAX  =  250.000; ENMIN  =  200.000 eV                                                          
   RCLOC  =    0.701    cutoff for local pot                                                        
   LCOR   =        T    correct aug charges                                                         
   LPAW   =        T    paw PP                                                                      
   EAUG   =  400.000                                                                                
   RMAX   =    1.123    core radius for proj-oper                                                   
   RAUG   =    1.200    factor for augmentation sphere                                              
   RDEP   =    1.112    radius for radial grids                                                     
   RDEPT  =    0.926    core radius for aug-charge                                                  
                                                                                                    
   Atomic configuration                                                                             
    2 entries                                                                                       
     n  l   j            E        occ.                                                              
     1  0  0.50        -6.4927   1.0000                                                             
     2  1  0.50        -3.4015   0.0000                                                             
   Description                                                                                      
     l       E           TYP  RCUT    TYP  RCUT                                                     
     0     -6.4927494     23  1.100                                                                 
     0      6.8029130     23  1.100                                                                 
     1     -4.0817478     23  1.100                                                                 
  local pseudopotential read in
  atomic valenz-charges read in
  non local Contribution for L=           0  read in
    real space projection operators read in
  non local Contribution for L=           0  read in
    real space projection operators read in
  non local Contribution for L=           1  read in
    real space projection operators read in
    PAW grid and wavefunctions read in
 
   number of l-projection  operators is LMAX  =           3
   number of lm-projection operators is LMMAX =           5
 
 POTCAR:    PAW_PBE O 08Apr2002                   
   SHA256 =  818f92134a0a090dccd8ba1447fa70422a3b330e708bb4f08108d8ae51209ddf O/POTCAR              
   COPYR  = (c) Copyright 08Apr2002 Georg Kresse                                                    
   COPYR  = This file is part of the software VASP. Any use, copying, and all other rights are regul
   COPYR  = If you do not have a valid VASP license, you may not use, copy or distribute this file. 
   VRHFIN =O: s2p4                                                                                  
   LEXCH  = PE                                                                                      
   EATOM  =   432.3788 eV,   31.7789 Ry                                                             
                                                                                                    
   TITEL  = PAW_PBE O 08Apr2002                                                                     
   LULTRA =        F    use ultrasoft PP ?                                                          
   IUNSCR =        1    unscreen: 0-lin 1-nonlin 2-no                                               
   RPACOR =    1.200    partial core radius                                                         
   POMASS =   16.000; ZVAL   =    6.000    mass and valenz                                          
   RCORE  =    1.520    outmost cutoff radius                                                       
   RWIGS  =    1.550; RWIGS  =    0.820    wigner-seitz radius (au A)                               
   ENMAX  =  400.000; ENMIN  =  300.000 eV                                                          
   ICORE  =        2    local potential                                                             
   LCOR   =        T    correct aug charges                                                         
   LPAW   =        T    paw PP                                                                      
   EAUG   =  605.392                                                                                
   DEXC   =    0.000                                                                                
   RMAX   =    1.553    core radius for proj-oper                                                   
   RAUG   =    1.300    factor for augmentation sphere                                              
   RDEP   =    1.550    radius for radial grids                                                     
   RDEPT  =    1.329    core radius for aug-charge                                                  
                                                                                                    
   Atomic configuration                                                                             
    4 entries                                                                                       
     n  l   j            E        occ.                                                              
     1  0  0.50      -514.6923   2.0000                                                             
     2  0  0.50       -23.9615   2.0000                                                             
     2  1  0.50        -9.0305   4.0000                                                             
     3  2  1.50        -9.5241   0.0000                                                             
   Description                                                                                      
     l       E           TYP  RCUT    TYP  RCUT                                                     
     0    -23.9615318     23  1.200                                                                 
     0     -9.5240782     23  1.200                                                                 
     1     -9.0304911     23  1.520                                                                 
     1      8.1634956     23  1.520                                                                 
     2     -9.5240782      7  1.500                                                                 
  local pseudopotential read in
  partial core-charges read in
  partial kinetic energy density read in
  kinetic energy density of atom read in
  atomic valenz-charges read in
  non local Contribution for L=           0  read in
    real space projection operators read in
  non local Contribution for L=           0  read in
    real space projection operators read in
  non local Contribution for L=           1  read in
    real space projection operators read in
  non local Contribution for L=           1  read in
    real space projection operators read in
    PAW grid and wavefunctions read in
 
   number of l-projection  operators is LMAX  =           4
   number of lm-projection operators is LMMAX =           8
 
 -----------------------------------------------------------------------------
|                                                                             |
|               ----> ADVICE to this user running VASP <----                  |
|                                                                             |
|     You have a (more or less) 'small supercell' and for smaller cells       |
|     it is recommended to use the reciprocal-space projection scheme!        |
|     The real-space optimization is not efficient for small cells and it     |
|     is also less accurate ...                                               |
|     Therefore, set LREAL=.FALSE. in the INCAR file.                         |
|                                                                             |
 -----------------------------------------------------------------------------

 Optimization of the real space projectors (new method)

 maximal supplied QI-value         = 34.20
 optimisation between [QCUT,QGAM] = [ 11.29, 22.57] = [ 35.68,142.71] Ry 
 Optimized for a Real-space Cutoff    1.16 Angstroem

   l    n(q)    QCUT    max X(q) W(low)/X(q) W(high)/X(q)  e(spline) 
   0      8    11.287    19.460    0.40E-03    0.73E-03    0.16E-06
   0      8    11.287    12.209    0.38E-03    0.70E-03    0.15E-06
   1      7    11.287     4.655    0.22E-03    0.25E-04    0.22E-06
 Optimization of the real space projectors (new method)

 maximal supplied QI-value         = 24.76
 optimisation between [QCUT,QGAM] = [ 11.39, 22.77] = [ 36.31,145.25] Ry 
 Optimized for a Real-space Cutoff    1.00 Angstroem

   l    n(q)    QCUT    max X(q) W(low)/X(q) W(high)/X(q)  e(spline) 
   0      7    11.387    20.381    0.39E-03    0.13E-02    0.15E-06
   0      7    11.387    15.268    0.42E-03    0.14E-02    0.17E-06
   1      6    11.387     5.964    0.41E-03    0.11E-02    0.17E-06
   1      6    11.387     5.382    0.39E-03    0.87E-03    0.15E-06
 -----------------------------------------------------------------------------
|                                                                             |
|               ----> ADVICE to this user running VASP <----                  |
|                                                                             |
|     You enforced a specific xc type in the INCAR file but a different       |
|     type was found in the POTCAR file.                                      |
|     I HOPE YOU KNOW WHAT YOU ARE DOING!                                     |
|                                                                             |
 -----------------------------------------------------------------------------

  PAW_PBE H 15Jun2001                   :
 energy of atom  1       EATOM=  -12.4884
 kinetic energy error for atom=    0.0020 (will be added to EATOM!!)
  PAW_PBE O 08Apr2002                   :
 energy of atom  2       EATOM= -432.3788
 kinetic energy error for atom=    0.0224 (will be added to EATOM!!)
 
 
 POSCAR:  H  O
  positions in direct lattice
  velocities in cartesian coordinates
 exchange correlation table for  LEXCH =       17
   RHO(1)=    0.500       N(1)  =     2000
   RHO(2)=  100.500       N(2)  =     4000

 VTST: version 4.1, (05/19/21)

 CHAIN: initializing optimizer
 
 OPT: Using VASP Dynamics algorithm
 CHAIN: Read ICHAIN            0
 
 POSCAR:  H  O
  positions in direct lattice
  velocities in cartesian coordinates
 


--------------------------------------------------------------------------------------------------------


 ion  position               nearest neighbor table
   1  0.528  0.468  0.512-   3 0.97
   2  0.528  0.537  0.512-   3 0.96
   3  0.503  0.502  0.513-   2 0.96   1 0.97
 

IMPORTANT INFORMATION: All symmetrisations will be switched off!
NOSYMM: (Re-)initialisation of all symmetry stuff for point group C_1.


----------------------------------------------------------------------------------------

                                     Primitive cell                                     

  volume of cell :   15847.8426

  direct lattice vectors                    reciprocal lattice vectors
    23.670780182  0.000000000  0.000000000     0.042246178  0.000000000  0.000000000
     0.000000000 22.317026138  0.000000000     0.000000000  0.044808838  0.000000000
     0.000000000  0.000000000 30.000000000     0.000000000  0.000000000  0.033333333

  length of vectors
    23.670780182 22.317026138 30.000000000     0.042246178  0.044808838  0.033333333

  position of ions in fractional coordinates (direct lattice)
     0.528422044  0.468372771  0.511932614
     0.528238716  0.536660081  0.511511777
     0.503399663  0.502482604  0.513138363

  ion indices of the primitive-cell ions
   primitive index   ion index
                 1           1
                 2           2
                 3           3

----------------------------------------------------------------------------------------

 
 
 KPOINTS: KPOINTS created by Atomic Simulation Env

Automatic generation of k-mesh.
 Grid dimensions read from file:
 generate k-points for:    1    1    1

 Generating k-lattice:

  Cartesian coordinates                     Fractional coordinates (reciprocal lattice)
     0.042246178  0.000000000  0.000000000     1.000000000  0.000000000  0.000000000
     0.000000000  0.044808838  0.000000000     0.000000000  1.000000000  0.000000000
     0.000000000  0.000000000  0.033333333     0.000000000  0.000000000  1.000000000

  Length of vectors
     0.042246178  0.044808838  0.033333333

  Shift w.r.t. Gamma in fractional coordinates (k-lattice)
     0.000000000  0.000000000  0.000000000

 
 Subroutine IBZKPT returns following result:
 ===========================================
 
 Found      1 irreducible k-points:
 
 Following reciprocal coordinates:
            Coordinates               Weight
  0.000000  0.000000  0.000000      1.000000
 
 Following cartesian coordinates:
            Coordinates               Weight
  0.000000  0.000000  0.000000      1.000000
 
 
 Subroutine IBZKPT_HF returns following result:
 ==============================================
 
 Found      1 k-points in 1st BZ
 the following      1 k-points will be used (e.g. in the exchange kernel)
 Following reciprocal coordinates:   # in IRBZ
  0.000000  0.000000  0.000000    1.00000000   1 t-inv F


--------------------------------------------------------------------------------------------------------




 Dimension of arrays:
   k-points           NKPTS =      1   k-points in BZ     NKDIM =      1   number of bands    NBANDS=    120
   number of dos      NEDOS =    301   number of ions     NIONS =      3
   non local maximal  LDIM  =      4   non local SUM 2l+1 LMDIM =      8
   total plane-waves  NPLWV = ******
   max r-space proj   IRMAX =   1285   max aug-charges    IRDMAX=   2625
   dimension x,y,z NGX =   140 NGY =  126 NGZ =  168
   dimension x,y,z NGXF=   280 NGYF=  252 NGZF=  336
   support grid    NGXF=   280 NGYF=  252 NGZF=  336
   ions per type =               2   1
   NGX,Y,Z   is equivalent  to a cutoff of   9.83,  9.39,  9.31 a.u.
   NGXF,Y,Z  is equivalent  to a cutoff of  19.67, 18.77, 18.62 a.u.

 SYSTEM =  unknown system                          
 POSCAR =   H  O                                   

 Startparameter for this run:
   NWRITE =      2    write-flag & timer
   PREC   = normal    normal or accurate (medium, high low for compatibility)
   ISTART =      0    job   : 0-new  1-cont  2-samecut
   ICHARG =      2    charge: 1-file 2-atom 10-const
   ISPIN  =      1    spin polarized calculation?
   LNONCOLLINEAR =      F non collinear calculations
   LSORBIT =      F    spin-orbit coupling
   INIWAV =      1    electr: 0-lowe 1-rand  2-diag
   LASPH  =      F    aspherical Exc in radial PAW
 Electronic Relaxation 1
   ENCUT  =  500.0 eV  36.75 Ry    6.06 a.u.  43.16 40.69 54.70*2*pi/ulx,y,z
   ENINI  =  500.0     initial cutoff
   ENAUG  =  605.4 eV  augmentation charge cutoff
   NELM   =    200;   NELMIN=  2; NELMDL= -5     # of ELM steps 
   EDIFF  = 0.1E-04   stopping-criterion for ELM
   LREAL  =      T    real-space projection
   NLSPLINE    = F    spline interpolate recip. space projectors
   LCOMPAT=      F    compatible to vasp.4.4
   GGA_COMPAT  = T    GGA compatible to vasp.4.4-vasp.4.6
   LMAXPAW     = -100 max onsite density
   LMAXMIX     =    2 max onsite mixed and CHGCAR
   VOSKOWN=      0    Vosko Wilk Nusair interpolation
   ROPT   =   -0.00050  -0.00050
 Ionic relaxation
   EDIFFG = -.5E-01   stopping-criterion for IOM
   NSW    =     73    number of steps for IOM
   NBLOCK =      1;   KBLOCK =     73    inner block; outer block 
   IBRION =      5    ionic relax: 0-MD 1-quasi-New 2-CG
   NFREE  =      2    steps in history (QN), initial steepest desc. (CG)
   ISIF   =      2    stress and relaxation
   IWAVPR =     11    prediction:  0-non 1-charg 2-wave 3-comb
   ISYM   =      0    0-nonsym 1-usesym 2-fastsym
   LCORR  =      T    Harris-Foulkes like correction to forces

   POTIM  = 0.0150    time-step for ionic-motion
   TEIN   =    0.0    initial temperature
   TEBEG  =    0.0;   TEEND  =   0.0 temperature during run
   SMASS  =  -3.00    Nose mass-parameter (am)
   estimated Nose-frequenzy (Omega)   =  0.10E-29 period in steps = 0.42E+48 mass=  -0.128E-25a.u.
   SCALEE = 1.0000    scale energy and forces
   NPACO  =    256;   APACO  = 10.0  distance and # of slots for P.C.
   PSTRESS=    0.0 pullay stress

  Mass of Ions in am
   POMASS =   1.00 16.00
  Ionic Valenz
   ZVAL   =   1.00  6.00
  Atomic Wigner-Seitz radii
   RWIGS  =  -1.00 -1.00
  virtual crystal weights 
   VCA    =   1.00  1.00
   NELECT =       8.0000    total number of electrons
   NUPDOWN=      -1.0000    fix difference up-down

 DOS related values:
   EMIN   =  10.00;   EMAX   =-10.00  energy-range for DOS
   EFERMI =   0.00
   ISMEAR =     0;   SIGMA  =   0.01  broadening in eV -4-tet -1-fermi 0-gaus

 Electronic relaxation 2 (details)
   IALGO  =     58    algorithm
   LDIAG  =      T    sub-space diagonalisation (order eigenvalues)
   LSUBROT=      F    optimize rotation matrix (better conditioning)
   TURBO    =      0    0=normal 1=particle mesh
   IRESTART =      0    0=no restart 2=restart with 2 vectors
   NREBOOT  =      0    no. of reboots
   NMIN     =      0    reboot dimension
   EREF     =   0.00    reference energy to select bands
   IMIX   =      4    mixing-type and parameters
     AMIX     =   0.40;   BMIX     =  1.00
     AMIX_MAG =   1.60;   BMIX_MAG =  1.00
     AMIN     =   0.10
     WC   =   100.;   INIMIX=   1;  MIXPRE=   1;  MAXMIX= -45

 Intra band minimization:
   WEIMIN = 0.0010     energy-eigenvalue tresh-hold
   EBREAK =  0.21E-07  absolut break condition
   DEPER  =   0.30     relativ break condition  

   TIME   =   0.40     timestep for ELM

  volume/ion in A,a.u.               =    5282.61     35648.84
  Fermi-wavevector in a.u.,A,eV,Ry     =   0.130351  0.246328  0.231182  0.016991
  Thomas-Fermi vector in A             =   0.769859
 
 Write flags
   LWAVE        =      F    write WAVECAR
   LDOWNSAMPLE  =      F    k-point downsampling of WAVECAR
   LCHARG       =      F    write CHGCAR
   LVTOT        =      F    write LOCPOT, total local potential
   LVHAR        =      F    write LOCPOT, Hartree potential only
   LELF         =      F    write electronic localiz. function (ELF)
   LORBIT       =      0    0 simple, 1 ext, 2 COOP (PROOUT), +10 PAW based schemes


 Dipole corrections
   LMONO  =      F    monopole corrections only (constant potential shift)
   LDIPOL =      F    correct potential (dipole corrections)
   IDIPOL =      0    1-x, 2-y, 3-z, 4-all directions 
   EPSILON=  1.0000000 bulk dielectric constant

 Exchange correlation treatment:
   GGA     =    BF    GGA type
   LEXCH   =    17    internal setting for exchange type
   LIBXC   =     F    Libxc                    
   VOSKOWN =     0    Vosko Wilk Nusair interpolation
   LHFCALC =     F    Hartree Fock is set to
   LHFONE  =     F    Hartree Fock one center treatment
   AEXX    =    0.0000 exact exchange contribution

 vdW DFT:
   LUSE_VDW   =     T    switch on vdW DFT
   Zab_VDW    =******    correlation parameter
   PARAM1     =0.1234
   PARAM2     =1.0000
   PARAM3     =0.0000
   -- rVV10 --
   BPARAM     = 6.3000
   CPARAM     = 0.0093

 Linear response parameters
   LEPSILON=     F    determine dielectric tensor
   LRPA    =     F    only Hartree local field effects (RPA)
   LNABLA  =     F    use nabla operator in PAW spheres
   LVEL    =     F    velocity operator in full k-point grid
   CSHIFT  =0.1000    complex shift for real part using Kramers Kronig
   OMEGAMAX=  -1.0    maximum frequency
   DEG_THRESHOLD= 0.2000000E-02 threshold for treating states as degnerate
   RTIME   =   -0.100 relaxation time in fs
  (WPLASMAI=    0.000 imaginary part of plasma frequency in eV, 0.658/RTIME)
   DFIELD  = 0.0000000 0.0000000 0.0000000 field for delta impulse in time
 
  Optional k-point grid parameters
   LKPOINTS_OPT  =     F    use optional k-point grid
   KPOINTS_OPT_MODE=     1    mode for optional k-point grid
 
 Orbital magnetization related:
   ORBITALMAG=     F  switch on orbital magnetization
   LCHIMAG   =     F  perturbation theory with respect to B field
   DQ        =  0.001000  dq finite difference perturbation B field
   LLRAUG    =     F  two centre corrections for induced B field



--------------------------------------------------------------------------------------------------------


 finite differences
 charge density and potential will be updated during run
 non-spin polarized calculation
 Conjugate gradient for all bands (Freysoldt, et al. PRB 79, 241103 (2009))
 preconditioned conjugated gradient                                        
 perform sub-space diagonalisation
    before iterative eigenvector-optimisation
 modified Broyden-mixing scheme, WC =      100.0
 initial mixing is a Kerker type mixing with AMIX =  0.4000 and BMIX =      1.0000
 Hartree-type preconditioning will be used
 using additional bands          116
 real space projection scheme for non local part
 use partial core corrections
 no Harris-corrections to forces 
 use gradient corrections 
 use of overlap-Matrix (Vanderbilt PP)
 Gauss-broadening in eV      SIGMA  =   0.01


--------------------------------------------------------------------------------------------------------


  energy-cutoff  :      500.00
  volume of cell :    15847.84
      direct lattice vectors                 reciprocal lattice vectors
    23.670780182  0.000000000  0.000000000     0.042246178  0.000000000  0.000000000
     0.000000000 22.317026138  0.000000000     0.000000000  0.044808838  0.000000000
     0.000000000  0.000000000 30.000000000     0.000000000  0.000000000  0.033333333

  length of vectors
    23.670780182 22.317026138 30.000000000     0.042246178  0.044808838  0.033333333


 
 k-points in units of 2pi/SCALE and weight: KPOINTS created by Atomic Simulation Env
   0.00000000  0.00000000  0.00000000       1.000
 
 k-points in reciprocal lattice and weights: KPOINTS created by Atomic Simulation Env
   0.00000000  0.00000000  0.00000000       1.000
 
 position of ions in fractional coordinates (direct lattice) 
   0.52842204  0.46837277  0.51193261
   0.52823872  0.53666008  0.51151178
   0.50339966  0.50248260  0.51313836
 
 position of ions in cartesian coordinates  (Angst):
  12.50816206 10.45268737 15.35797842
  12.50382252 11.97665706 15.34535330
  11.91586277 11.21391740 15.39415090
 


--------------------------------------------------------------------------------------------------------


 use serial FFT for orbitals x direction half grid
 k-point   1 :   0.0000 0.0000 0.0000  plane waves:  201172

 maximum and minimum number of plane-waves per node :    201172   201172

 maximum number of plane-waves:    201172
 maximum index in each direction: 
   IXMAX=   43   IYMAX=   40   IZMAX=   54
   IXMIN=    0   IYMIN=  -40   IZMIN=  -54


 serial   3D FFT for wavefunctions
 parallel 3D FFT for charge:
    minimum data exchange during FFTs selected (reduces bandwidth)


 total amount of memory used by VASP MPI-rank0   193132. kBytes
=======================================================================

   base      :      30000. kBytes
   nonlr-proj:        160. kBytes
   fftplans  :      20200. kBytes
   grid      :     133108. kBytes
   one-center:          4. kBytes
   wavefun   :       9660. kBytes
 
     INWAV:  cpu time      0.0004: real time      0.0010
 Broyden mixing: mesh for mixing (old mesh)
   NGX = 87   NGY = 81   NGZ =109
  (NGX  =280   NGY  =252   NGZ  =336)
  gives a total of 768123 points

 initial charge density was supplied:
 charge density of overlapping atoms calculated
 number of electron       8.0000000 magnetization 
 keeping initial charge density in first step


--------------------------------------------------------------------------------------------------------


 Maximum index for non-local projection operator         1209
 Maximum index for augmentation-charges            0 (set IRDMAX)


--------------------------------------------------------------------------------------------------------


 First call to EWALD:  gamma=   0.071
 Maximum number of real-space cells 3x 3x 2
 Maximum number of reciprocal cells 3x 2x 3

    FEWALD:  cpu time      0.0068: real time      0.0068


--------------------------------------- Iteration      1(   1)  ---------------------------------------


vdW kernel read from vdw_kernel.bindat
  0.0000  0.2424  0.5071  0.7962  1.1119  1.4567  1.8333  2.2446  2.6937  3.1842
  3.7199  4.3049  4.9438  5.6415  6.4036  7.2358  8.1446  9.1372 10.2212 11.4050
 12.6979 14.1099 15.6519 17.3360 19.1751 21.1837 23.3773 25.7729 28.3892 31.2465
 34.3669 37.7748 41.4965 45.5611 50.0000
 
    POTLOK:  cpu time      9.9171: real time      9.9350
    SETDIJ:  cpu time      0.0094: real time      0.0095
    TRIAL :  cpu time      2.1069: real time      2.1570
    CORREC:  cpu time      0.0004: real time      0.0004
    --------------------------------------------
      LOOP:  cpu time     12.0446: real time     12.1159

 eigenvalue-minimisations  :   360
 total energy-change (2. order) : 0.7059360E+02  (-0.1618251E+03)
 number of electron       8.0000000 magnetization 
 augmentation part        8.0000000 magnetization 

 Free energy of the ion-electron system (eV)
  ---------------------------------------------------
  alpha Z        PSCENC =         0.01415027
  Ewald energy   TEWEN  =       137.89863226
  -Hartree energ DENC   =      -495.96097456
  -exchange      EXHF   =         0.00000000
  -V(xc)+E(xc)   XCENC  =        32.43621026
  PAW double counting   =       350.31426239     -352.17320053
  entropy T*S    EENTRO =        -0.00000000
  eigenvalues    EBANDS =       -65.14790966
  atomic energy  EATOM  =       463.21242928
  ---------------------------------------------------
  free energy    TOTEN  =        70.59359972 eV

  energy without entropy =       70.59359972  energy(sigma->0) =       70.59359972


--------------------------------------------------------------------------------------------------------




--------------------------------------- Iteration      1(   2)  ---------------------------------------


    TRIAL :  cpu time      2.7748: real time      2.7803
    CORREC:  cpu time      0.0003: real time      0.0003
    --------------------------------------------
      LOOP:  cpu time      2.7946: real time      2.8146

 eigenvalue-minimisations  :   480
 total energy-change (2. order) :-0.8451413E+02  (-0.8451413E+02)
 number of electron       8.0000000 magnetization 
 augmentation part        8.0000000 magnetization 

 Free energy of the ion-electron system (eV)
  ---------------------------------------------------
  alpha Z        PSCENC =         0.01415027
  Ewald energy   TEWEN  =       137.89863226
  -Hartree energ DENC   =      -495.96097456
  -exchange      EXHF   =         0.00000000
  -V(xc)+E(xc)   XCENC  =        32.43621026
  PAW double counting   =       350.31426239     -352.17320053
  entropy T*S    EENTRO =        -0.00000000
  eigenvalues    EBANDS =      -149.66203477
  atomic energy  EATOM  =       463.21242928
  ---------------------------------------------------
  free energy    TOTEN  =       -13.92052540 eV

  energy without entropy =      -13.92052540  energy(sigma->0) =      -13.92052540


--------------------------------------------------------------------------------------------------------




--------------------------------------- Iteration      1(   3)  ---------------------------------------


    TRIAL :  cpu time      1.2771: real time      1.2787
    CORREC:  cpu time      0.0003: real time      0.0003
    --------------------------------------------
      LOOP:  cpu time      1.2789: real time      1.3067

 eigenvalue-minimisations  :   240
 total energy-change (2. order) :-0.1252019E+01  (-0.1252019E+01)
 number of electron       8.0000000 magnetization 
 augmentation part        8.0000000 magnetization 

 Free energy of the ion-electron system (eV)
  ---------------------------------------------------
  alpha Z        PSCENC =         0.01415027
  Ewald energy   TEWEN  =       137.89863226
  -Hartree energ DENC   =      -495.96097456
  -exchange      EXHF   =         0.00000000
  -V(xc)+E(xc)   XCENC  =        32.43621026
  PAW double counting   =       350.31426239     -352.17320053
  entropy T*S    EENTRO =        -0.00000000
  eigenvalues    EBANDS =      -150.91405351
  atomic energy  EATOM  =       463.21242928
  ---------------------------------------------------
  free energy    TOTEN  =       -15.17254414 eV

  energy without entropy =      -15.17254414  energy(sigma->0) =      -15.17254414


--------------------------------------------------------------------------------------------------------




--------------------------------------- Iteration      1(   4)  ---------------------------------------


    TRIAL :  cpu time      2.6436: real time      2.6470
    CORREC:  cpu time      0.0005: real time      0.0005
    --------------------------------------------
      LOOP:  cpu time      2.6468: real time      2.6752

 eigenvalue-minimisations  :   480
 total energy-change (2. order) :-0.3368677E-02  (-0.3368677E-02)
 number of electron       8.0000000 magnetization 
 augmentation part        8.0000000 magnetization 

 Free energy of the ion-electron system (eV)
  ---------------------------------------------------
  alpha Z        PSCENC =         0.01415027
  Ewald energy   TEWEN  =       137.89863226
  -Hartree energ DENC   =      -495.96097456
  -exchange      EXHF   =         0.00000000
  -V(xc)+E(xc)   XCENC  =        32.43621026
  PAW double counting   =       350.31426239     -352.17320053
  entropy T*S    EENTRO =        -0.00000000
  eigenvalues    EBANDS =      -150.91742219
  atomic energy  EATOM  =       463.21242928
  ---------------------------------------------------
  free energy    TOTEN  =       -15.17591281 eV

  energy without entropy =      -15.17591281  energy(sigma->0) =      -15.17591281


--------------------------------------------------------------------------------------------------------




--------------------------------------- Iteration      1(   5)  ---------------------------------------


    TRIAL :  cpu time      1.2589: real time      1.2615
    CORREC:  cpu time      0.0003: real time      0.0003
    CHARGE:  cpu time      0.4989: real time      0.5012
    --------------------------------------------
      LOOP:  cpu time      1.7603: real time      1.7901

 eigenvalue-minimisations  :   240
 total energy-change (2. order) :-0.8156667E-07  (-0.8149421E-07)
 number of electron       7.9999990 magnetization 
 augmentation part        0.8580440 magnetization 

 Free energy of the ion-electron system (eV)
  ---------------------------------------------------
  alpha Z        PSCENC =         0.01415027
  Ewald energy   TEWEN  =       137.89863226
  -Hartree energ DENC   =      -495.96097456
  -exchange      EXHF   =         0.00000000
  -V(xc)+E(xc)   XCENC  =        32.43621026
  PAW double counting   =       350.31426239     -352.17320053
  entropy T*S    EENTRO =        -0.00000000
  eigenvalues    EBANDS =      -150.91742227
  atomic energy  EATOM  =       463.21242928
  ---------------------------------------------------
  free energy    TOTEN  =       -15.17591290 eV

  energy without entropy =      -15.17591290  energy(sigma->0) =      -15.17591290


--------------------------------------------------------------------------------------------------------




--------------------------------------- Iteration      1(   6)  ---------------------------------------


    POTLOK:  cpu time      8.4810: real time      8.5075
    SETDIJ:  cpu time      0.0076: real time      0.0076
    TRIAL :  cpu time      0.8710: real time      0.8766
    CORREC:  cpu time      9.3226: real time      9.3339
    CHARGE:  cpu time      0.3958: real time      0.3966
    --------------------------------------------
      LOOP:  cpu time     19.0817: real time     19.1519

 eigenvalue-minimisations  :     0
 total energy-change (2. order) : 0.6075710E+01  (-0.3032601E+01)
 number of electron       7.9999991 magnetization 
 augmentation part        0.7414126 magnetization 

 Free energy of the ion-electron system (eV)
  ---------------------------------------------------
  alpha Z        PSCENC =         0.01415027
  Ewald energy   TEWEN  =       137.89863226
  -Hartree energ DENC   =      -585.98850897
  -exchange      EXHF   =         0.00000000
  -V(xc)+E(xc)   XCENC  =        37.51260104
  PAW double counting   =       620.55539008     -623.40275406
  entropy T*S    EENTRO =        -0.00000000
  eigenvalues    EBANDS =       -58.90214320
  atomic energy  EATOM  =       463.21242928
  ---------------------------------------------------
  free energy    TOTEN  =        -9.10020331 eV

  energy without entropy =       -9.10020331  energy(sigma->0) =       -9.10020331


--------------------------------------------------------------------------------------------------------




--------------------------------------- Iteration      1(   7)  ---------------------------------------


    POTLOK:  cpu time      8.9684: real time      9.7931
    SETDIJ:  cpu time      0.0074: real time      0.0074
    TRIAL :  cpu time      0.7676: real time      0.7957
    CORREC:  cpu time      9.3967: real time      9.4108
    CHARGE:  cpu time      0.4047: real time      0.4048
    --------------------------------------------
      LOOP:  cpu time     19.5497: real time     20.4427

 eigenvalue-minimisations  :     0
 total energy-change (2. order) :-0.3120587E+01  (-0.2891099E+00)
 number of electron       7.9999991 magnetization 
 augmentation part        0.7046635 magnetization 

 Free energy of the ion-electron system (eV)
  ---------------------------------------------------
  alpha Z        PSCENC =         0.01415027
  Ewald energy   TEWEN  =       137.89863226
  -Hartree energ DENC   =      -539.98230405
  -exchange      EXHF   =         0.00000000
  -V(xc)+E(xc)   XCENC  =        34.87445336
  PAW double counting   =       560.89960809     -563.23159791
  entropy T*S    EENTRO =        -0.00000000
  eigenvalues    EBANDS =      -105.90616182
  atomic energy  EATOM  =       463.21242928
  ---------------------------------------------------
  free energy    TOTEN  =       -12.22079051 eV

  energy without entropy =      -12.22079051  energy(sigma->0) =      -12.22079051


--------------------------------------------------------------------------------------------------------




--------------------------------------- Iteration      1(   8)  ---------------------------------------


    POTLOK:  cpu time      8.7066: real time      8.7166
    SETDIJ:  cpu time      0.0090: real time      0.0090
    TRIAL :  cpu time      0.7878: real time      0.7901
    CORREC:  cpu time      9.3518: real time      9.3626
    CHARGE:  cpu time      0.4095: real time      0.4103
    --------------------------------------------
      LOOP:  cpu time     19.2683: real time     19.3213

 eigenvalue-minimisations  :     0
 total energy-change (2. order) :-0.2892650E+00  (-0.1839698E+00)
 number of electron       7.9999991 magnetization 
 augmentation part        0.6925234 magnetization 

 Free energy of the ion-electron system (eV)
  ---------------------------------------------------
  alpha Z        PSCENC =         0.01415027
  Ewald energy   TEWEN  =       137.89863226
  -Hartree energ DENC   =      -537.08784552
  -exchange      EXHF   =         0.00000000
  -V(xc)+E(xc)   XCENC  =        34.73274306
  PAW double counting   =       558.56293801     -560.67729022
  entropy T*S    EENTRO =        -0.00000000
  eigenvalues    EBANDS =      -109.16581266
  atomic energy  EATOM  =       463.21242928
  ---------------------------------------------------
  free energy    TOTEN  =       -12.51005551 eV

  energy without entropy =      -12.51005551  energy(sigma->0) =      -12.51005551


--------------------------------------------------------------------------------------------------------




--------------------------------------- Iteration      1(   9)  ---------------------------------------


    POTLOK:  cpu time      8.7815: real time      8.7958
    SETDIJ:  cpu time      0.0076: real time      0.0076
    TRIAL :  cpu time      0.8004: real time      0.8031
    CORREC:  cpu time      9.2993: real time      9.3111
    CHARGE:  cpu time      0.3980: real time      0.3981
    --------------------------------------------
      LOOP:  cpu time     19.2907: real time     19.3460

 eigenvalue-minimisations  :     0
 total energy-change (2. order) :-0.1814192E+00  (-0.8543360E-01)
 number of electron       7.9999991 magnetization 
 augmentation part        0.6931289 magnetization 

 Free energy of the ion-electron system (eV)
  ---------------------------------------------------
  alpha Z        PSCENC =         0.01415027
  Ewald energy   TEWEN  =       137.89863226
  -Hartree energ DENC   =      -535.42185010
  -exchange      EXHF   =         0.00000000
  -V(xc)+E(xc)   XCENC  =        34.67561414
  PAW double counting   =       557.84264330     -559.88004686
  entropy T*S    EENTRO =        -0.00000000
  eigenvalues    EBANDS =      -111.03304699
  atomic energy  EATOM  =       463.21242928
  ---------------------------------------------------
  free energy    TOTEN  =       -12.69147471 eV

  energy without entropy =      -12.69147471  energy(sigma->0) =      -12.69147471


--------------------------------------------------------------------------------------------------------




--------------------------------------- Iteration      1(  10)  ---------------------------------------


    POTLOK:  cpu time      8.7627: real time      9.0301
    SETDIJ:  cpu time      0.0108: real time      0.0108
    TRIAL :  cpu time      0.7845: real time      0.7904
    CORREC:  cpu time      8.8912: real time      9.4041
    CHARGE:  cpu time      0.3940: real time      0.3948
    --------------------------------------------
      LOOP:  cpu time     18.8473: real time     19.6629

 eigenvalue-minimisations  :     0
 total energy-change (2. order) :-0.8391139E-01  (-0.2279635E-01)
 number of electron       7.9999991 magnetization 
 augmentation part        0.6953322 magnetization 

 Free energy of the ion-electron system (eV)
  ---------------------------------------------------
  alpha Z        PSCENC =         0.01415027
  Ewald energy   TEWEN  =       137.89863226
  -Hartree energ DENC   =      -533.68964291
  -exchange      EXHF   =         0.00000000
  -V(xc)+E(xc)   XCENC  =        34.58399516
  PAW double counting   =       554.24365728     -556.29312764
  entropy T*S    EENTRO =        -0.00000000
  eigenvalues    EBANDS =      -112.74547980
  atomic energy  EATOM  =       463.21242928
  ---------------------------------------------------
  free energy    TOTEN  =       -12.77538610 eV

  energy without entropy =      -12.77538610  energy(sigma->0) =      -12.77538610


--------------------------------------------------------------------------------------------------------




--------------------------------------- Iteration      1(  11)  ---------------------------------------


    POTLOK:  cpu time      8.4624: real time      8.4719
    SETDIJ:  cpu time      0.0082: real time      0.0082
    TRIAL :  cpu time      0.8099: real time      0.8128
    CORREC:  cpu time      9.0598: real time      9.0705
    CHARGE:  cpu time      0.3954: real time      0.3963
    --------------------------------------------
      LOOP:  cpu time     18.7408: real time     18.7913

 eigenvalue-minimisations  :     0
 total energy-change (2. order) :-0.2276045E-01  (-0.5804513E-02)
 number of electron       7.9999991 magnetization 
 augmentation part        0.6977247 magnetization 

 Free energy of the ion-electron system (eV)
  ---------------------------------------------------
  alpha Z        PSCENC =         0.01415027
  Ewald energy   TEWEN  =       137.89863226
  -Hartree energ DENC   =      -533.09853410
  -exchange      EXHF   =         0.00000000
  -V(xc)+E(xc)   XCENC  =        34.54037979
  PAW double counting   =       551.17475324     -553.24440854
  entropy T*S    EENTRO =        -0.00000000
  eigenvalues    EBANDS =      -113.29554875
  atomic energy  EATOM  =       463.21242928
  ---------------------------------------------------
  free energy    TOTEN  =       -12.79814655 eV

  energy without entropy =      -12.79814655  energy(sigma->0) =      -12.79814655


--------------------------------------------------------------------------------------------------------




--------------------------------------- Iteration      1(  12)  ---------------------------------------


    POTLOK:  cpu time      8.4266: real time      8.4359
    SETDIJ:  cpu time      0.0072: real time      0.0072
    TRIAL :  cpu time      0.7902: real time      0.7926
    CORREC:  cpu time      8.9571: real time      8.9681
    CHARGE:  cpu time      0.3946: real time      0.3946
    --------------------------------------------
      LOOP:  cpu time     18.5792: real time     18.6314

 eigenvalue-minimisations  :     0
 total energy-change (2. order) :-0.5809435E-02  (-0.1599569E-02)
 number of electron       7.9999991 magnetization 
 augmentation part        0.6989513 magnetization 

 Free energy of the ion-electron system (eV)
  ---------------------------------------------------
  alpha Z        PSCENC =         0.01415027
  Ewald energy   TEWEN  =       137.89863226
  -Hartree energ DENC   =      -533.05369616
  -exchange      EXHF   =         0.00000000
  -V(xc)+E(xc)   XCENC  =        34.53018114
  PAW double counting   =       549.56393951     -551.65214198
  entropy T*S    EENTRO =        -0.00000000
  eigenvalues    EBANDS =      -113.31745030
  atomic energy  EATOM  =       463.21242928
  ---------------------------------------------------
  free energy    TOTEN  =       -12.80395598 eV

  energy without entropy =      -12.80395598  energy(sigma->0) =      -12.80395598


--------------------------------------------------------------------------------------------------------




--------------------------------------- Iteration      1(  13)  ---------------------------------------


    POTLOK:  cpu time      8.3530: real time      8.4051
    SETDIJ:  cpu time      0.0076: real time      0.0076
    TRIAL :  cpu time      0.7757: real time      0.8553
    CORREC:  cpu time      8.8774: real time      9.8366
    CHARGE:  cpu time      0.3950: real time      0.3964
    --------------------------------------------
      LOOP:  cpu time     18.4134: real time     19.5318

 eigenvalue-minimisations  :     0
 total energy-change (2. order) :-0.1602174E-02  (-0.5859827E-03)
 number of electron       7.9999991 magnetization 
 augmentation part        0.6992137 magnetization 

 Free energy of the ion-electron system (eV)
  ---------------------------------------------------
  alpha Z        PSCENC =         0.01415027
  Ewald energy   TEWEN  =       137.89863226
  -Hartree energ DENC   =      -533.13764853
  -exchange      EXHF   =         0.00000000
  -V(xc)+E(xc)   XCENC  =        34.53207978
  PAW double counting   =       549.02278234     -551.12052345
  entropy T*S    EENTRO =        -0.00000000
  eigenvalues    EBANDS =      -113.22746012
  atomic energy  EATOM  =       463.21242928
  ---------------------------------------------------
  free energy    TOTEN  =       -12.80555815 eV

  energy without entropy =      -12.80555815  energy(sigma->0) =      -12.80555815


--------------------------------------------------------------------------------------------------------




--------------------------------------- Iteration      1(  14)  ---------------------------------------


    POTLOK:  cpu time      8.1520: real time      8.1611
    SETDIJ:  cpu time      0.0077: real time      0.0077
    TRIAL :  cpu time      0.7969: real time      0.7994
    CORREC:  cpu time      8.8061: real time      8.8176
    CHARGE:  cpu time      0.3940: real time      0.3941
    --------------------------------------------
      LOOP:  cpu time     18.1603: real time     18.2121

 eigenvalue-minimisations  :     0
 total energy-change (2. order) :-0.5868913E-03  (-0.2425781E-03)
 number of electron       7.9999991 magnetization 
 augmentation part        0.6991822 magnetization 

 Free energy of the ion-electron system (eV)
  ---------------------------------------------------
  alpha Z        PSCENC =         0.01415027
  Ewald energy   TEWEN  =       137.89863226
  -Hartree energ DENC   =      -533.20088702
  -exchange      EXHF   =         0.00000000
  -V(xc)+E(xc)   XCENC  =        34.53514248
  PAW double counting   =       548.96798580     -551.06812524
  entropy T*S    EENTRO =        -0.00000000
  eigenvalues    EBANDS =      -113.16547289
  atomic energy  EATOM  =       463.21242928
  ---------------------------------------------------
  free energy    TOTEN  =       -12.80614505 eV

  energy without entropy =      -12.80614505  energy(sigma->0) =      -12.80614505


--------------------------------------------------------------------------------------------------------




--------------------------------------- Iteration      1(  15)  ---------------------------------------


    POTLOK:  cpu time      8.1384: real time      8.1505
    SETDIJ:  cpu time      0.0083: real time      0.0083
    TRIAL :  cpu time      0.7932: real time      0.7955
    CORREC:  cpu time      8.8006: real time      8.8127
    CHARGE:  cpu time      0.3955: real time      0.3956
    --------------------------------------------
      LOOP:  cpu time     18.1658: real time     18.1926

 eigenvalue-minimisations  :     0
 total energy-change (2. order) :-0.2422026E-03  (-0.8923098E-04)
 number of electron       7.9999991 magnetization 
 augmentation part        0.6989703 magnetization 

 Free energy of the ion-electron system (eV)
  ---------------------------------------------------
  alpha Z        PSCENC =         0.01415027
  Ewald energy   TEWEN  =       137.89863226
  -Hartree energ DENC   =      -533.31508198
  -exchange      EXHF   =         0.00000000
  -V(xc)+E(xc)   XCENC  =        34.54224426
  PAW double counting   =       549.27027405     -551.36944967
  entropy T*S    EENTRO =        -0.00000000
  eigenvalues    EBANDS =      -113.05958572
  atomic energy  EATOM  =       463.21242928
  ---------------------------------------------------
  free energy    TOTEN  =       -12.80638725 eV

  energy without entropy =      -12.80638725  energy(sigma->0) =      -12.80638725


--------------------------------------------------------------------------------------------------------




--------------------------------------- Iteration      1(  16)  ---------------------------------------


    POTLOK:  cpu time      8.1344: real time      8.1437
    SETDIJ:  cpu time      0.0088: real time      0.0088
    TRIAL :  cpu time      0.7925: real time      0.7957
    CORREC:  cpu time      9.2344: real time     10.1134
    CHARGE:  cpu time      0.3972: real time      0.3980
    --------------------------------------------
      LOOP:  cpu time     18.5709: real time     19.4927

 eigenvalue-minimisations  :     0
 total energy-change (2. order) :-0.8888993E-04  (-0.2682509E-04)
 number of electron       7.9999991 magnetization 
 augmentation part        0.6989287 magnetization 

 Free energy of the ion-electron system (eV)
  ---------------------------------------------------
  alpha Z        PSCENC =         0.01415027
  Ewald energy   TEWEN  =       137.89863226
  -Hartree energ DENC   =      -533.33893401
  -exchange      EXHF   =         0.00000000
  -V(xc)+E(xc)   XCENC  =        34.54398854
  PAW double counting   =       549.47843369     -551.57575401
  entropy T*S    EENTRO =        -0.00000000
  eigenvalues    EBANDS =      -113.03942216
  atomic energy  EATOM  =       463.21242928
  ---------------------------------------------------
  free energy    TOTEN  =       -12.80647614 eV

  energy without entropy =      -12.80647614  energy(sigma->0) =      -12.80647614


--------------------------------------------------------------------------------------------------------




--------------------------------------- Iteration      1(  17)  ---------------------------------------


    POTLOK:  cpu time      8.1562: real time      8.1674
    SETDIJ:  cpu time      0.0101: real time      0.0101
    TRIAL :  cpu time      0.7986: real time      0.8009
    CORREC:  cpu time      8.8033: real time      8.8147
    CHARGE:  cpu time      0.3993: real time      0.3994
    --------------------------------------------
      LOOP:  cpu time     18.1714: real time     18.2225

 eigenvalue-minimisations  :     0
 total energy-change (2. order) :-0.2669192E-04  (-0.7225988E-05)
 number of electron       7.9999991 magnetization 
 augmentation part        0.6989177 magnetization 

 Free energy of the ion-electron system (eV)
  ---------------------------------------------------
  alpha Z        PSCENC =         0.01415027
  Ewald energy   TEWEN  =       137.89863226
  -Hartree energ DENC   =      -533.36393825
  -exchange      EXHF   =         0.00000000
  -V(xc)+E(xc)   XCENC  =        34.54547956
  PAW double counting   =       549.60562593     -551.70221201
  entropy T*S    EENTRO =        -0.00000000
  eigenvalues    EBANDS =      -113.01666987
  atomic energy  EATOM  =       463.21242928
  ---------------------------------------------------
  free energy    TOTEN  =       -12.80650283 eV

  energy without entropy =      -12.80650283  energy(sigma->0) =      -12.80650283


--------------------------------------------------------------------------------------------------------




--------------------------------------- Iteration      1(  18)  ---------------------------------------


    POTLOK:  cpu time      8.1227: real time      8.1322
    SETDIJ:  cpu time      0.0073: real time      0.0073
    TRIAL :  cpu time      0.7898: real time      0.7923
    CORREC:  cpu time      8.7961: real time      8.8078
    EDDIAG:  cpu time      0.3062: real time      0.3122
    CHARGE:  cpu time      0.4039: real time      0.4039
    --------------------------------------------
      LOOP:  cpu time     18.4294: real time     18.4878

 eigenvalue-minimisations  :     0
 total energy-change (2. order) :-0.7186177E-05  (-0.2261813E-05)
 number of electron       7.9999991 magnetization 
 augmentation part        0.6989110 magnetization 

 Free energy of the ion-electron system (eV)
  ---------------------------------------------------
  alpha Z        PSCENC =         0.01415027
  Ewald energy   TEWEN  =       137.89863226
  -Hartree energ DENC   =      -533.36683619
  -exchange      EXHF   =         0.00000000
  -V(xc)+E(xc)   XCENC  =        34.54554865
  PAW double counting   =       549.63010083     -551.72650208
  entropy T*S    EENTRO =        -0.00000000
  eigenvalues    EBANDS =      -113.01403304
  atomic energy  EATOM  =       463.21242928
  ---------------------------------------------------
  free energy    TOTEN  =       -12.80651002 eV

  energy without entropy =      -12.80651002  energy(sigma->0) =      -12.80651002


--------------------------------------------------------------------------------------------------------


  average scaling for gradient   1.8975


 average (electrostatic) potential at core
  the test charge radii are     0.5201  0.7215
  (the norm of the test charge is              1.0000)
       1 -45.9760       2 -45.9860       3 -81.1953
 
 
 
 E-fermi :  -7.4742     XC(G=0):  -0.0531     alpha+bet : -0.0082

 Fermi energy:        -7.4741801247

 k-point     1 :       0.0000    0.0000    0.0000
  band No.  band energies     occupation 
      1     -25.8239      2.00000
      2     -13.5230      2.00000
      3      -9.6301      2.00000
      4      -7.5318      2.00000
      5      -1.4270      0.00000
      6       0.0063      0.00000
      7       0.0533      0.00000
      8       0.1338      0.00000
      9       0.1747      0.00000
     10       0.2275      0.00000
     11       0.2706      0.00000
     12       0.3134      0.00000
     13       0.3377      0.00000
     14       0.3477      0.00000
     15       0.3778      0.00000
     16       0.4281      0.00000
     17       0.4379      0.00000
     18       0.4506      0.00000
     19       0.4582      0.00000
     20       0.5003      0.00000
     21       0.5048      0.00000
     22       0.5264      0.00000
     23       0.5599      0.00000
     24       0.5761      0.00000
     25       0.5888      0.00000
     26       0.6211      0.00000
     27       0.6699      0.00000
     28       0.6727      0.00000
     29       0.6991      0.00000
     30       0.7205      0.00000
     31       0.7222      0.00000
     32       0.7285      0.00000
     33       0.7330      0.00000
     34       0.7981      0.00000
     35       0.8225      0.00000
     36       0.8233      0.00000
     37       0.8870      0.00000
     38       0.9208      0.00000
     39       0.9422      0.00000
     40       0.9470      0.00000
     41       0.9497      0.00000
     42       0.9827      0.00000
     43       0.9900      0.00000
     44       1.0075      0.00000
     45       1.0813      0.00000
     46       1.1269      0.00000
     47       1.1352      0.00000
     48       1.1686      0.00000
     49       1.2024      0.00000
     50       1.2052      0.00000
     51       1.2094      0.00000
     52       1.2130      0.00000
     53       1.2192      0.00000
     54       1.2312      0.00000
     55       1.2314      0.00000
     56       1.2320      0.00000
     57       1.2364      0.00000
     58       1.2622      0.00000
     59       1.2883      0.00000
     60       1.3208      0.00000
     61       1.3377      0.00000
     62       1.3405      0.00000
     63       1.3511      0.00000
     64       1.3569      0.00000
     65       1.3625      0.00000
     66       1.4024      0.00000
     67       1.4144      0.00000
     68       1.4199      0.00000
     69       1.4370      0.00000
     70       1.4470      0.00000
     71       1.4471      0.00000
     72       1.4861      0.00000
     73       1.4871      0.00000
     74       1.4997      0.00000
     75       1.5129      0.00000
     76       1.5183      0.00000
     77       1.5185      0.00000
     78       1.5291      0.00000
     79       1.5352      0.00000
     80       1.5632      0.00000
     81       1.5775      0.00000
     82       1.5936      0.00000
     83       1.6098      0.00000
     84       1.6124      0.00000
     85       1.6163      0.00000
     86       1.6229      0.00000
     87       1.6347      0.00000
     88       1.6380      0.00000
     89       1.6462      0.00000
     90       1.6953      0.00000
     91       1.6985      0.00000
     92       1.7290      0.00000
     93       1.7369      0.00000
     94       1.7374      0.00000
     95       1.7593      0.00000
     96       1.7614      0.00000
     97       1.7615      0.00000
     98       1.7800      0.00000
     99       1.7842      0.00000
    100       1.8134      0.00000
    101       1.8343      0.00000
    102       1.8393      0.00000
    103       1.8466      0.00000
    104       1.9155      0.00000
    105       1.9164      0.00000
    106       1.9498      0.00000
    107       1.9541      0.00000
    108       1.9793      0.00000
    109       1.9929      0.00000
    110       1.9983      0.00000
    111       2.0262      0.00000
    112       2.0312      0.00000
    113       2.0412      0.00000
    114       2.0492      0.00000
    115       2.0526      0.00000
    116       2.0616      0.00000
    117       2.0633      0.00000
    118       2.0677      0.00000
    119       2.0808      0.00000
    120       2.0898      0.00000


--------------------------------------------------------------------------------------------------------


 soft charge-density along one line, spin component           1
         0         1         2         3         4         5         6         7         8         9
 total charge-density along one line
 
 pseudopotential strength for first ion, spin component:           1
 -2.402  -4.152  -0.002  -0.000   0.002
 -4.152  -7.090  -0.007  -0.000   0.005
 -0.002  -0.007  -0.319   0.000  -0.005
 -0.000  -0.000   0.000  -0.326  -0.000
  0.002   0.005  -0.005  -0.000  -0.322
 total augmentation occupancy for first ion, spin component:           1
  3.647  -0.732   0.573   0.026  -0.432
 -0.732   0.204  -0.107  -0.005   0.088
  0.573  -0.107   0.099   0.004  -0.056
  0.026  -0.005   0.004   0.041  -0.002
 -0.432   0.088  -0.056  -0.002   0.070


------------------------ aborting loop because EDIFF is reached ----------------------------------------


    FORLOC:  cpu time      0.0238: real time      0.0238
    FORNL :  cpu time      0.3021: real time      0.3024
    STRESS:  cpu time      0.7991: real time      0.8007
    FORCOR:  cpu time      8.6130: real time      8.6229
    OFIELD:  cpu time      0.0014: real time      0.0014

  FORCE on cell =-STRESS in cart. coord.  units (eV):
  Direction    XX          YY          ZZ          XY          YZ          ZX
  --------------------------------------------------------------------------------------
  Alpha Z     0.01415     0.01415     0.01415
  Ewald      53.64059   110.92618   -26.66805    -0.13728    -1.01840    -4.82149
  Hartree   182.21289   194.63961   156.50853    -0.03457    -0.18000    -0.87560
  E(xc)     -38.05941   -37.68131   -38.58905    -0.00123    -0.00764    -0.03831
  Local    -323.72624  -378.15251  -238.23740     0.14392     0.89546     4.21180
  n-local   -31.20278   -30.42816   -30.96585    -0.01669     0.00936     0.01293
  augment     6.78196     5.80927     8.16966     0.00320     0.02018     0.10022
  Kinetic   150.27576   134.84989   169.72491     0.05507     0.29296     1.40682
  Fock        0.00000     0.00000     0.00000     0.00000     0.00000     0.00000
  -------------------------------------------------------------------------------------
  Total      -0.06308    -0.02287    -0.04311     0.01242     0.01192    -0.00362
  in kB      -0.00638    -0.00231    -0.00436     0.00126     0.00120    -0.00037
  external pressure =       -0.00 kB  Pullay stress =        0.00 kB


 VOLUME and BASIS-vectors are now :
 -----------------------------------------------------------------------------
  energy-cutoff  :      500.00
  volume of cell :    15847.84
      direct lattice vectors                 reciprocal lattice vectors
    23.670780182  0.000000000  0.000000000     0.042246178  0.000000000  0.000000000
     0.000000000 22.317026138  0.000000000     0.000000000  0.044808838  0.000000000
     0.000000000  0.000000000 30.000000000     0.000000000  0.000000000  0.033333333

  length of vectors
    23.670780182 22.317026138 30.000000000     0.042246178  0.044808838  0.033333333


 FORCES acting on ions:
    Electron-Ion                     Ewald-Force                    Non-Local-Force
 -----------------------------------------------------------------------------------------------
   -.519E+02 0.723E+02 0.312E+01   0.569E+02 -.793E+02 -.342E+01   -.506E+01 0.699E+01 0.305E+00
   -.516E+02 -.726E+02 0.433E+01   0.566E+02 0.797E+02 -.475E+01   -.504E+01 -.703E+01 0.422E+00
   0.641E+02 0.193E+00 -.462E+01   -.114E+03 -.352E+00 0.818E+01   0.495E+02 0.188E+00 -.354E+01
 -----------------------------------------------------------------------------------------------
   -.394E+02 -.799E-01 0.283E+01   0.000E+00 0.000E+00 0.000E+00   0.394E+02 0.147E+00 -.282E+01
 
 
 POSITION                                       TOTAL-FORCE (eV/Angst)
 -----------------------------------------------------------------------------------
     12.50816     10.45269     15.35798        -0.015675     -0.029864     -0.004195
     12.50382     11.97666     15.34535         0.013417      0.023470     -0.006993
     11.91586     11.21392     15.39415         0.002258      0.006394      0.011188
 -----------------------------------------------------------------------------------
    total drift:                               -0.022568      0.067320      0.018099


--------------------------------------------------------------------------------------------------------



  FREE ENERGIE OF THE ION-ELECTRON SYSTEM (eV)
  ---------------------------------------------------
  free  energy   TOTEN  =       -12.80651002 eV

  energy  without entropy=      -12.80651002  energy(sigma->0) =      -12.80651002
 


--------------------------------------------------------------------------------------------------------


 BEEFens 2000 ensemble energies
             -0.873461730258435E+01
             -0.230952731242017E+00
             -0.187998929606337E+01
              0.609045068300735E+01
             -0.304688272019485E+01
             -0.232702195002086E+01
             -0.617405167999638E+01
             -0.131962578427572E+02
             -0.534771201799968E+01
             -0.573637572767389E+01
             -0.481972988174899E+01
              0.543540088043939E+00
              0.307713604743714E+00
             -0.244350231034396E-01
              0.468268575449361E+00
              0.651645589281149E+01
             -0.294979972089827E+01
             -0.190717354980858E+01
              0.301107309685648E+01
             -0.154577243278876E+02
              0.762875501286017E+01
             -0.301387223871119E+01
             -0.836622014609169E+00
             -0.143597201970490E+01
             -0.320232321616487E-01
             -0.857359171473153E+00
              0.124340011601807E+02
             -0.264066621186811E+01
             -0.116594042219143E+01
             -0.745582223793519E+01
              0.102187809403077E+02
             -0.122791567169937E+01
             -0.565074486640368E+01
              0.279614575395644E+01
             -0.432013438736810E+00
              0.340431952870502E+01
             -0.116632687679875E+00
              0.442826252713171E+00
              0.466517456251298E+01
             -0.141636612981084E+02
              0.773032742968318E+01
              0.159020583481493E+01
             -0.123375473481567E+01
             -0.430379892090928E+01
              0.169361527817273E+01
             -0.224229219335493E+01
              0.663834284588708E+01
              0.502573534077916E+01
             -0.322069050767632E+01
             -0.425821212917447E+01
             -0.413682742423178E+01
             -0.510428994287105E+01
              0.270600987573023E+01
             -0.719459735239643E+01
              0.203116154650850E+01
              0.843150803017410E+01
              0.983035755949542E+01
              0.467529195305108E+01
              0.245760199011446E+01
              0.420526597385367E+01
              0.126708336988490E+02
              0.270403530153317E+01
             -0.772156155197502E+01
             -0.166563556779086E+01
             -0.394363036078724E+01
              0.865180225533713E+01
             -0.105105667784066E+02
             -0.848139431079478E+01
             -0.430695079880272E+01
             -0.204112558135643E+01
             -0.578872286927619E+01
              0.386996917628790E+01
              0.182027132191348E+01
              0.191961452633439E+01
             -0.543785496830371E+01
             -0.486677669571462E+01
             -0.783371406607915E+01
              0.480168206404629E+01
             -0.449997534569595E+01
              0.418136446138382E+01
             -0.102981866073499E+01
             -0.419993873941907E+01
             -0.745708392227202E+01
             -0.213954268775775E+01
             -0.207893320260969E+01
             -0.211432290769974E+01
              0.553957051347107E+01
              0.102800725655553E+02
             -0.601128323775206E+01
             -0.110729104068316E+02
             -0.269397612835528E+01
              0.153866541781244E+02
             -0.781558744217714E+01
              0.440044881890867E+01
             -0.134308804761309E+01
             -0.868832103468888E+01
              0.390870769092749E+01
              0.466912836233082E+01
             -0.203384980292563E+01
              0.431423040633736E+01
             -0.376990860043017E+01
             -0.782881467638303E+01
              0.133718311173370E+02
              0.616223925164776E+01
              0.352092763759292E+01
              0.164913987784776E+01
              0.276635428506392E+01
              0.114812302898389E+02
             -0.379790824927556E+01
              0.502350521920071E+00
             -0.194700202201763E+02
              0.276215318533506E+01
             -0.941944320444651E+01
              0.181071019577791E+01
              0.293044651377705E+01
             -0.485335341641300E+01
             -0.724350623512327E+01
              0.570664305179150E+00
             -0.423057941454876E+01
              0.558534427210696E+01
             -0.636649940319775E+01
             -0.788605020117004E+00
             -0.528914918616656E+01
             -0.360345517512712E+00
              0.262199368065669E+00
              0.271428059748719E+01
              0.310208005641499E-01
             -0.102807716344158E+01
              0.889254555513338E+01
              0.127183290585250E+02
              0.674992358522932E+01
              0.985343998757434E+01
             -0.197114605816295E+01
              0.123840033477647E+01
              0.729880819191101E+01
             -0.201075354669662E-01
             -0.105629625106350E+02
             -0.590135329588525E+01
             -0.690168413378559E+01
             -0.412610384878528E+01
              0.370367489170575E+01
             -0.166857189102538E+02
             -0.184965521523468E+01
              0.613076513583280E+01
             -0.570771809223375E+01
             -0.441358230965955E+01
              0.759634372174313E+01
              0.669592348981681E+01
             -0.419139259659575E+01
              0.372449958747860E+01
             -0.352534021243698E+01
              0.522622703977025E+01
              0.104798542872167E+01
              0.194945779117811E+01
             -0.117544707514304E+02
             -0.677103116307557E+01
             -0.135887465769706E+01
             -0.382374278295647E+00
             -0.567505971294369E+01
              0.152197827165339E+02
             -0.199166209217792E+01
             -0.418970210964563E+01
              0.550378249915109E+01
             -0.638034625277680E+01
             -0.503618044397520E+01
              0.438491635176067E+01
              0.150986782755962E+01
              0.153368622722991E+01
              0.186448476918766E+01
             -0.151702959548681E+01
              0.188753998391579E+01
              0.820427876032582E+01
             -0.398668762493961E+01
              0.281923346111613E+01
              0.125118362393062E+02
              0.433497107839978E+01
             -0.618156075825382E+00
             -0.260328605342678E+01
              0.213264510556728E+02
             -0.308433766955731E+01
              0.536514257150752E+01
              0.384054982171551E+01
              0.428749236186353E+01
              0.128758510890384E+02
              0.656955822087191E+01
             -0.603340841379083E+00
              0.316788540929014E+01
              0.697981911745880E+01
              0.521389587976598E+01
             -0.820763708361250E+01
              0.131201930290938E+02
             -0.120467897767431E+02
             -0.189958797441536E+01
              0.789376214473022E+01
              0.170168691695439E+01
              0.593326416650186E+00
              0.417558597855700E+01
              0.264328188214356E+01
              0.457712777119862E+01
             -0.864823755840480E+01
              0.513313982842035E+00
             -0.340889555002977E+01
             -0.846492060528846E+00
             -0.218388786383173E+00
             -0.154432167394500E+01
             -0.808608709389347E+00
              0.117396500358456E+02
             -0.809155879285683E+00
             -0.407051298695814E+01
             -0.365861477990967E+00
              0.188024737462849E+01
             -0.856256996268763E+01
             -0.694749714760843E+01
             -0.476695845511773E+01
             -0.863384217849970E+01
             -0.244727442914027E+01
             -0.567252848026891E+01
              0.250862873144594E+01
              0.132698467450592E-01
             -0.170157080433930E+01
             -0.117616055935894E+01
              0.860761859798430E+00
             -0.264896557406522E+01
              0.906320672239237E+01
             -0.118514447877618E+02
             -0.174381455507788E+01
             -0.215412171341946E+01
              0.237449693593852E+01
              0.270313998609352E+01
             -0.690113948397979E+01
             -0.188782105163018E+01
              0.621809378370675E+01
             -0.318544574250793E+01
              0.189064100369976E+01
              0.505478923155991E+01
             -0.675081091516603E-01
              0.159479076834211E+02
             -0.199547689366765E+01
             -0.498439081771788E+01
              0.187479794709937E+00
             -0.379547386011310E+01
              0.722093455412711E+01
             -0.618701420647307E+01
              0.183416871781277E+01
              0.730755903170201E+01
             -0.194594329155647E+01
              0.163881115096569E+02
              0.175682096273087E+02
             -0.985015226713458E+01
              0.793960471686789E+01
              0.285167811680768E+01
             -0.757836488938337E+01
              0.274407740200997E+01
              0.554940456471273E+01
              0.603569763012413E+01
              0.645534771596957E+00
              0.240860739763009E+01
              0.101655768385225E+02
             -0.319668763101673E+01
              0.153508818874882E+01
              0.964171282953620E+01
             -0.507927100770378E+01
             -0.288835226594641E+01
              0.790393048672853E+01
              0.425545373142649E+01
              0.106996731275071E+02
              0.435731222610794E+01
              0.158350903232987E+01
              0.344116722602191E+01
              0.582511667724375E+01
             -0.688097227868750E+01
              0.722388329445117E+00
              0.310433016716850E+01
              0.128048993745359E+01
              0.325505860619124E+01
             -0.852224429867559E+01
              0.465240746867180E+01
             -0.603210624040616E+01
             -0.435821245971579E+01
              0.246053652195229E+01
             -0.167859542445294E+01
              0.796958776437864E+01
             -0.264015802404560E+01
              0.380960312552194E+01
              0.424233602116038E+01
              0.109109679439206E+02
              0.750818219770272E+01
              0.711575512342374E+01
             -0.989803359715509E+00
             -0.117621671320440E+01
             -0.430276638283387E+01
              0.110775432938115E+02
              0.113909429982637E+02
              0.519089563810154E+01
             -0.358524478371072E+01
              0.690858646082285E+01
             -0.698664684790671E+00
              0.277776103498337E+01
              0.938698074497871E+01
             -0.341740891789112E+00
             -0.152886020078098E+01
             -0.340348851289598E+01
             -0.805049946650085E+01
              0.133145007064232E+02
              0.659861188216849E+01
             -0.857460586354987E+01
             -0.252023729652150E+01
              0.351301720860195E+01
             -0.167590804885477E+01
              0.880739874620834E+01
              0.217424253139043E+01
              0.111117386159765E+02
              0.386492250210718E+01
             -0.340662928646017E+01
              0.272437399548773E+01
             -0.879384895974709E+00
             -0.377245962450642E+01
              0.228206521075815E+01
              0.255071128223746E+01
              0.124335787774783E+02
              0.106524066768306E+02
              0.783173879514905E+01
              0.975409811690483E+01
              0.105638937187885E+01
             -0.375711443461573E+01
              0.185116763067881E+01
             -0.479488288324071E+01
             -0.747721012284254E+01
             -0.794467523527076E+01
             -0.423042769926326E+01
             -0.152069562607599E+02
             -0.476798925461548E+01
             -0.118849750736805E+02
              0.265602027952759E+01
             -0.644702839885090E+01
              0.659683712667906E+01
             -0.133219983490961E+02
             -0.417496779307903E+01
              0.612064194824219E+01
              0.297023791494136E+01
             -0.121252173857023E+02
              0.779345672214470E+01
             -0.387261479290021E+01
              0.757988184744853E+01
             -0.395451376390617E+01
             -0.106704970428044E+02
              0.232853560796847E+01
             -0.887690143829357E+01
             -0.116739317476366E+01
             -0.123976298899953E+00
              0.591118440084258E+01
              0.174354648336078E+02
             -0.616019175991318E+01
             -0.513432100787285E+01
             -0.786173293420696E+00
             -0.141142611074400E+01
             -0.110869627721430E+02
             -0.813386426737413E+01
              0.719018414676459E+01
             -0.292733282777071E+01
              0.265986061501312E+01
             -0.681317183236276E+01
             -0.193537813435201E+01
             -0.588406308603700E+01
              0.688297705302470E+01
              0.205049963360391E+01
             -0.339445374767587E+01
             -0.212879385136328E+01
              0.161653281420444E+01
             -0.114286832821394E+01
              0.560018699790943E+01
             -0.373020551926840E+01
              0.109584283572838E+01
              0.462012630891384E+01
              0.201277971424659E+01
             -0.296071309176897E+01
              0.216205342858826E+02
              0.797288213638239E+01
              0.103772288592041E+01
              0.108917950368141E+01
             -0.847157019710300E+01
              0.444960302283763E+01
             -0.104367670675495E+02
             -0.436050545315768E+01
             -0.816019489671676E+01
             -0.256144418970513E+01
              0.806154560921003E+01
             -0.796190110504817E+01
              0.312887833778870E+01
             -0.551293236459131E+00
              0.283939661495275E+00
             -0.478382088808355E+01
             -0.590852654296739E+01
             -0.760829376621942E+00
             -0.520829097856772E+01
             -0.315415032850061E+01
             -0.549858124048504E+01
             -0.915400538939663E+00
             -0.451661019105745E+01
             -0.686334949811772E+01
              0.326145479477046E+01
             -0.208891691736053E+01
              0.301122866666403E+01
              0.140343562797876E+01
             -0.103020076526707E+02
             -0.729583358697706E+01
             -0.645437195449608E+01
              0.473087884643544E+01
             -0.503011672256790E+00
             -0.871456075669329E+01
              0.789670123198880E+01
             -0.591574731514541E+01
              0.774521313184567E+01
             -0.417184857682473E+01
             -0.674816998005621E+01
              0.370208335778487E+01
             -0.984813561531846E+01
             -0.479161002190163E+01
              0.874440832852938E+01
              0.294165741217824E+01
             -0.553922508848477E+01
              0.767885085081724E+01
             -0.228080009774777E+01
             -0.491173659307562E+01
[...]
  237            fftbas_plan_mpi                      24.854834                     1349   5
  238              dfftw_execute                         6.318809                   4047   6
  239              map_forward                           9.583911                   1330   6
  240                map_gather                            0.543961                  665   7
  241                m_alltoallv_z                         7.134741                  665   7
  242                map_scatter                           1.891628                  665   7
  243              map_backward                          7.974170                   1368   6
  244                map_gather                            1.596851                  684   7
  245                m_alltoallv_z                         5.534415                  684   7
  246                map_scatter                           0.829237                  684   7
  247        ggaall_grid                           1.228792                           19   3
  248        m_sumb_d                              0.164837                          114   3
  249        forhar                                0.160783                           19   3
  250          m_sumb_d                              0.036808                         19   4
  251        strehar                               0.164648                           19   3
  252          m_sumb_d                              0.003591                         19   4
  253        m_bcast_d                             0.003696                           38   3
  254      potlok                              431.224950                             37   2
  255        fft3d_mpi                           140.817143                         7565   3
  256          fftbrc_mpi                          131.922727                       7565   4
  257            fftbas_plan_mpi                     131.899404                     7565   5
  258              dfftw_execute                        36.384190                  22695   6
  259              map_forward                          46.603948                   7602   6
  260                map_gather                            3.795422                 3838   7
  261                m_alltoallv_z                        31.475424                 3838   7
  262                map_scatter                          11.257301                 3838   7
  263              map_backward                         43.724424                   7528   6
  264                map_gather                            8.891801                 3764   7
  265                m_alltoallv_z                        30.102294                 3764   7
  266                map_scatter                           4.658040                 3764   7
  267        ggaall_grid                          22.551613                          645   3
  268        m_sumb_d                              0.769862                         3262   3
  269        pothar                                0.193709                           37   3
  270          m_sumb_d                              0.116711                         37   4
  271        m_bcast_d                             0.992984                           37   3
  272      potlok_metagga                        0.000035                             37   2
  273      set_dd_magatom                        0.000018                             19   2
  274      set_dd_paw                            0.258632                             37   2
  275        set_rsgf_all                          0.000066                           37   3
  276        m_sumb_d                              0.254285                          259   3
  277      m_bcast_d                             0.002373                             38   2
  278      wavpre_noio                           0.579917                             18   2
  279        stufak                                0.150672                           18   3
  280      eddiag                                6.523302                             18   2
  281        overl                                 0.000240                           18   3
  282        redis_proj                            0.290634                           54   3
  283          m_alltoall_d                          0.289870                         54   4
  284        fftwav_mpi                            1.540736                           18   3
  285          fftwav                                1.540636                         18   4
  286            fft3d                                 1.383030                       18   5
  287        hamilt_local                          2.167098                           18   3
  288          vhamil                                0.392373                         18   4
  289          kinhamil                              1.774532                         18   4
  290            fftext_mpi                            1.755096                       18   5
  291              fft3d_mpi                             1.710868                     18   6
  292                fft3d                                 1.710749                   18   7
  293        redis_pw                              1.590543                           54   3
  294          m_alltoall_d                          1.526053                         54   4
  295        orth1                                 0.122025                           18   3
  296        m_sumb_d                              0.085793                           18   3
  297        shift_bands_between_low_high          0.000022                           18   3
  298        lincom                                0.152083                           18   3
  299      set_charge                            7.329894                             18   2
  300        soft_charge                           6.967242                           18   3
  301          fftwav_mpi                            1.315727                         18   4
  302            fftwav                                1.315635                       18   5
  303              fft3d                                 1.180591                     18   6
  304          pw_charge                             0.205178                         18   4
  305          m_sumb_d                              2.672069                         18   4
  306          fft_gq                                1.949014                         18   4
  307            fft3d_mpi                             1.889431                       18   5
  308              fftbrc_mpi                            0.636817                     18   6
  309                fftbas_plan_mpi                       0.636769                   18   7
  310                  dfftw_execute                         0.353147                 54   8
  311                  map_backward                          0.272587                 36   8
  312                    map_gather                            0.149034               36   9
  313                    m_alltoallv_z                         0.116528               36   9
  314                    map_scatter                           0.006454               36   9
  315        depsum                                0.006522                           18   3
  316          m_sumb_d                              0.006131                         18   4
  317        augmentation_charge                   0.331168                           18   3
  318          fft3d_mpi                             0.279583                         18   4
  319            fftbrc_mpi                            0.265990                       18   5
  320              fftbas_plan_mpi                       0.265936                     18   6
  321                dfftw_execute                         0.085096                   54   7
  322                map_backward                          0.167328                   36   7
  323                  map_gather                            0.043966                 18   8
  324                  m_alltoallv_z                         0.100333                 18   8
  325                  map_scatter                           0.022686                 18   8
 
 Flat profile
 ============
 
             routine name                   CPU           calls
 ---------------------------------------------------------------
 potlok                               2441.222118         362
 m_alltoallv_z                         292.938870       34049
 dfftw_execute                         168.217181      100032
 force_and_stress                      128.148509          19
 fft3d                                 114.187799        1529
 m_sumb_d                               81.033045       14572
 fft3d_mpi                              79.627746       33725
 map_scatter                            69.170522       34049
 ggaall_grid                            68.367354         989
 map_gather                             55.036729       34049
 m_alltoall_d                           46.323913        5970
 fftbas_plan_mpi                        24.397522       33344
 total_time                             24.223388           1
 edwav                                  17.255707         324
 eccp                                   14.077614         653
 fftwav                                 10.909147        1148
 m_bcast_d                               9.390108         498
 lincom                                  7.970186        1028
 soft_charge                             5.483142         343
 elmin_all                               5.162747          19
 vhamil                                  4.843402         219
 orth1                                   4.622010         597
 pw_charge                               3.616009         343
 w1_dscal                                2.386717         162
 lapack                                  2.039791          20
 redis_pw                                1.936737        1672
 fft_gq                                  1.140996         343
 augmentation_charge                     1.019201         343
 m_bcast_z                               0.966359         120
 fftext_mpi                              0.870679         381
 pothar                                  0.820282         362
 eddiag                                  0.733992         199
 rspher_all                              0.521182         248
 set_charge                              0.502098         343
 wavpre_noio                             0.429245          18
 map_backward                            0.336509       33668
 map_forward                             0.335166       33020
 forloc                                  0.310759          19
 choleski                                0.252730         343
 strelo                                  0.251871          19
 kinhamil                                0.220260         219
 eddav                                   0.206946           5
 ggemm                                   0.202678          20
 stufak                                  0.164409          19
 strehar                                 0.161057          19
 forhar                                  0.123975          19
 fftbrc_mpi                              0.113732       33344
 setdij_                                 0.107533         857
 w1_copy                                 0.100652          60
 rpro_isp                                0.091169         247
 redis_proj                              0.061350        4298
 strkin                                  0.060054          19
 racc0                                   0.053096         182
 set_dd_paw                              0.045162         381
 orthch                                  0.042249         343
 rpromu                                  0.036932         247
 rpro1                                   0.027219         177
 rpromu_gemm                             0.023883         741
 brgrid                                  0.022572           1
 overl                                   0.020857         901
 densta                                  0.019948         354
 apply_precond                           0.019125          15
 setup_precond                           0.010698           5
 rsp                                     0.009732          19
 depsum                                  0.008365         343
 strnlr                                  0.008165          19
 fewald                                  0.005394          19
 fftwav_mpi                              0.005325        1148
 redis_pw_all                            0.003529         324
 fornlr                                  0.002429          19
 hamilt_local                            0.002260         199
 redis_pw_over_bands                     0.001429         361
 rcp                                     0.000888          19
 fordep                                  0.000868          19
 set_rsgf_all                            0.000685         381
 hamiltmu                                0.000580          20
 overl1                                  0.000504          20
 newband                                 0.000448          25
 potlok_metagga                          0.000376         362
 raccmu_                                 0.000358          20
 crpa_reader                             0.000296           1
 phaser                                  0.000273         414
 proall                                  0.000201          19
 w1_projall                              0.000111          15
 rotate_active_occupied_orbital          0.000058          19
 shift_bands_between_low_high            0.000042          37
 set_dd_magatom                          0.000041          38
 truncate_high_frequency_w1              0.000024          25
 vectorpot                               0.000014           1
 ---------------------------------------------------------------
  summed up times    3693.06703400612     
 
 Accumulative profile
 ====================
 
             routine name                   CPU           calls
 ---------------------------------------------------------------
 total_time                           3693.067034           1
 potlok                               3144.817694         362
 elmin_all                            3040.406503          19
 fft3d_mpi                             722.429050       33725
 fftbrc_mpi                            610.546231       33344
 fftbas_plan_mpi                       610.432499       33344
 m_alltoallv_z                         292.938870       34049
 map_forward                           219.678457       33020
 map_backward                          198.139339       33668
 force_and_stress                      177.175827          19
 dfftw_execute                         168.217181      100032
 edwav                                 145.955209         324
 set_charge                            138.276359         343
 soft_charge                           130.700768         343
 fft3d                                 114.187799        1529
 fftwav_mpi                             92.847198        1148
 fftwav                                 92.841873        1148
 m_sumb_d                               81.033045       14572
 map_scatter                            69.170522       34049
 ggaall_grid                            68.367354         989
 map_gather                             55.036729       34049
 m_alltoall_d                           46.323913        5970
 fft_gq                                 37.999460         343
 eddiag                                 34.884845         199
 redis_pw                               33.279901        1672
 fftext_mpi                             33.128758         381
 hamilt_local                           23.371694         199
 rpro_isp                               21.070386         247
 kinhamil                               20.743273         219
 redis_proj                             15.042099        4298
 strnlr                                 14.761332          19
 eccp                                   14.077614         653
 eddav                                  10.095752           5
 m_bcast_d                               9.390108         498
 lincom                                  7.970186        1028
 orthch                                  7.186022         343
 augmentation_charge                     6.643684         343
 fornlr                                  5.646544          19
 vhamil                                  4.843402         219
 redis_pw_over_bands                     4.738504         361
 redis_pw_all                            4.737076         324
 orth1                                   4.622010         597
 pw_charge                               3.616009         343
 densta                                  3.552533         354
 set_dd_paw                              2.823476         381
 w1_dscal                                2.386717         162
 hamiltmu                                2.224847          20
 lapack                                  2.039791          20
 pothar                                  1.590975         362
 proall                                  1.577868          19
 m_bcast_z                               0.966359         120
 newband                                 0.659377          25
 wavpre_noio                             0.579917          18
 rspher_all                              0.521182         248
 setdij_                                 0.485036         857
 depsum                                  0.429809         343
 forloc                                  0.320384          19
 strelo                                  0.256521          19
 choleski                                0.252730         343
 ggemm                                   0.202678          20
 strehar                                 0.164648          19
 stufak                                  0.164409          19
 forhar                                  0.160783          19
 w1_copy                                 0.100652          60
 strkin                                  0.065879          19
 rpromu                                  0.060815         247
 racc0                                   0.053096         182
 rpro1                                   0.027219         177
 fordep                                  0.026370          19
 rpromu_gemm                             0.023883         741
 fewald                                  0.023303          19
 brgrid                                  0.022572           1
 overl                                   0.020857         901
 apply_precond                           0.019125          15
 setup_precond                           0.010698           5
 rsp                                     0.009732          19
 raccmu_                                 0.007027          20
 w1_projall                              0.002899          15
 rcp                                     0.000888          19
 set_rsgf_all                            0.000685         381
 overl1                                  0.000504          20
 potlok_metagga                          0.000376         362
 crpa_reader                             0.000296           1
 phaser                                  0.000273         414
 rotate_active_occupied_orbital          0.000058          19
 shift_bands_between_low_high            0.000042          37
 set_dd_magatom                          0.000041          38
 truncate_high_frequency_w1              0.000024          25
 vectorpot                               0.000014           1
 ---------------------------------------------------------------
 
Profiling took   0.588549  0.186163  0.007606  0.006959 seconds
Profiling took   0.818854 seconds
