 vasp.6.3.2 27Jun22 (build Jan 03 2024 23:25:20) gamma-only                     
  
 executed on           IFC15_impi date 2024.06.05  02:31:05
 running  512 mpi-ranks, with    1 threads/rank
 distrk:  each k-point on  512 cores,    1 groups
 distr:  one band on NCORE=  32 cores,   16 groups


--------------------------------------------------------------------------------------------------------


 INCAR:
   ENCUT = 500.000000
   SIGMA = 0.010000
   EDIFF = 1.00e-05
   ALGO = A
   ISMEAR = 0
   NELM = 200
   NSW = 999
   NCORE = 32
   LCHARG = .TRUE.
   LWAVE = .TRUE.
   LREAL = Auto
   IBRION = 5
   POTIM = 0.015
   NFREE = 2
   ISYM = 0
   EDIFFG = -0.05
   GGA = BF
   LUSE_VDW = .TRUE.
   ZAB_VDW = -1.8867
   LBEEFENS = .TRUE.
   DIPOL = 0.5 0.5 0.65
   IDIPOL = 3
   LDIPOL = .TRUE.

 POTCAR:    PAW_PBE Au 04Oct2007                  
 POTCAR:    PAW_PBE O 08Apr2002                   
 POTCAR:    PAW_PBE Sr_sv 07Sep2000               
 POTCAR:    PAW_PBE Ti_sv 26Sep2005               
 POTCAR:    PAW_PBE H 15Jun2001                   
 -----------------------------------------------------------------------------
|                                                                             |
|               ----> ADVICE to this user running VASP <----                  |
|                                                                             |
|     You have switched on vdW-DFT.                                           |
|     This routine was written and supplied by Jiri Klimes. We recommend      |
|     that you carefully read and cite the following publications:            |
|       J. Klimes, D.R. Bowler, A. Michelides                                 |
|          J. Phys.: Cond Matt. 22 022201 (2010)                              |
|       J. Klimes, D.R. Bowler, A. Michelides                                 |
|          Phys. Rev. B. 83, 195131 (2011)                                    |
|     and references therein.                                                 |
|                                                                             |
 -----------------------------------------------------------------------------

 POTCAR:    PAW_PBE Au 04Oct2007                  
   SHA256 =  d0044ae04e2bdce24051b198fc5c053d722a5bc6fe3c3b100514a13fc5d2db88 Au/POTCAR             
   COPYR  = (c) Copyright 04Oct2007 Georg Kresse                                                    
   COPYR  = This file is part of the software VASP. Any use, copying, and all other rights are regul
   COPYR  = If you do not have a valid VASP license, you may not use, copy or distribute this file. 
   VRHFIN =Au: s1d10                                                                                
   LEXCH  = PE                                                                                      
   EATOM  =   926.0867 eV,   68.0654 Ry                                                             
                                                                                                    
   TITEL  = PAW_PBE Au 04Oct2007                                                                    
   LULTRA =        F    use ultrasoft PP ?                                                          
   IUNSCR =        1    unscreen: 0-lin 1-nonlin 2-no                                               
   RPACOR =    2.330    partial core radius                                                         
   POMASS =  196.966; ZVAL   =   11.000    mass and valenz                                          
   RCORE  =    2.500    outmost cutoff radius                                                       
   RWIGS  =    2.840; RWIGS  =    1.503    wigner-seitz radius (au A)                               
   ENMAX  =  229.943; ENMIN  =  172.457 eV                                                          
   ICORE  =        3    local potential                                                             
   LCOR   =        T    correct aug charges                                                         
   LPAW   =        T    paw PP                                                                      
   EAUG   =  356.670                                                                                
   DEXC   =    0.000                                                                                
   RMAX   =    2.562    core radius for proj-oper                                                   
   RAUG   =    1.300    factor for augmentation sphere                                              
   RDEP   =    2.598    radius for radial grids                                                     
   RDEPT  =    2.193    core radius for aug-charge                                                  
                                                                                                    
   Atomic configuration                                                                             
   16 entries                                                                                       
     n  l   j            E        occ.                                                              
     1  0  0.50    -80748.5001   2.0000                                                             
     2  0  0.50    -14244.7466   2.0000                                                             
     2  1  1.50    -12310.9591   6.0000                                                             
     3  0  0.50     -3362.1768   2.0000                                                             
     3  1  1.50     -2801.5463   6.0000                                                             
     3  2  2.50     -2203.8206  10.0000                                                             
     4  0  0.50      -729.8168   2.0000                                                             
     4  1  1.50      -546.0527   6.0000                                                             
     4  2  2.50      -325.7302  10.0000                                                             
     4  3  3.50       -81.1472  14.0000                                                             
     5  0  0.50      -108.3201   2.0000                                                             
     5  1  1.50       -59.7479   6.0000                                                             
     5  2  2.50        -6.8783  10.0000                                                             
     6  0  0.50        -5.7602   1.0000                                                             
     6  1  1.50        -6.8029   0.0000                                                             
     5  3  2.50        -1.3606   0.0000                                                             
   Description                                                                                      
     l       E           TYP  RCUT    TYP  RCUT                                                     
     2     -6.8782861     23  2.500                                                                 
     2     -8.2388687     23  2.500                                                                 
     0     -5.7601759     23  2.500                                                                 
     0     -0.8493231     23  2.500                                                                 
     1     -2.7211652     23  2.500                                                                 
     1     27.2116520     23  2.500                                                                 
     3     -1.3605826     23  2.500                                                                 
  local pseudopotential read in
  partial core-charges read in
  partial kinetic energy density read in
  atomic valenz-charges read in
  non local Contribution for L=           2  read in
    real space projection operators read in
  non local Contribution for L=           2  read in
    real space projection operators read in
  non local Contribution for L=           0  read in
    real space projection operators read in
  non local Contribution for L=           0  read in
    real space projection operators read in
  non local Contribution for L=           1  read in
    real space projection operators read in
  non local Contribution for L=           1  read in
    real space projection operators read in
    PAW grid and wavefunctions read in
 
   number of l-projection  operators is LMAX  =           6
   number of lm-projection operators is LMMAX =          18
 
 POTCAR:    PAW_PBE O 08Apr2002                   
   SHA256 =  818f92134a0a090dccd8ba1447fa70422a3b330e708bb4f08108d8ae51209ddf O/POTCAR              
   COPYR  = (c) Copyright 08Apr2002 Georg Kresse                                                    
   COPYR  = This file is part of the software VASP. Any use, copying, and all other rights are regul
   COPYR  = If you do not have a valid VASP license, you may not use, copy or distribute this file. 
   VRHFIN =O: s2p4                                                                                  
   LEXCH  = PE                                                                                      
   EATOM  =   432.3788 eV,   31.7789 Ry                                                             
                                                                                                    
   TITEL  = PAW_PBE O 08Apr2002                                                                     
   LULTRA =        F    use ultrasoft PP ?                                                          
   IUNSCR =        1    unscreen: 0-lin 1-nonlin 2-no                                               
   RPACOR =    1.200    partial core radius                                                         
   POMASS =   16.000; ZVAL   =    6.000    mass and valenz                                          
   RCORE  =    1.520    outmost cutoff radius                                                       
   RWIGS  =    1.550; RWIGS  =    0.820    wigner-seitz radius (au A)                               
   ENMAX  =  400.000; ENMIN  =  300.000 eV                                                          
   ICORE  =        2    local potential                                                             
   LCOR   =        T    correct aug charges                                                         
   LPAW   =        T    paw PP                                                                      
   EAUG   =  605.392                                                                                
   DEXC   =    0.000                                                                                
   RMAX   =    1.553    core radius for proj-oper                                                   
   RAUG   =    1.300    factor for augmentation sphere                                              
   RDEP   =    1.550    radius for radial grids                                                     
   RDEPT  =    1.329    core radius for aug-charge                                                  
                                                                                                    
   Atomic configuration                                                                             
    4 entries                                                                                       
     n  l   j            E        occ.                                                              
     1  0  0.50      -514.6923   2.0000                                                             
     2  0  0.50       -23.9615   2.0000                                                             
     2  1  0.50        -9.0305   4.0000                                                             
     3  2  1.50        -9.5241   0.0000                                                             
   Description                                                                                      
     l       E           TYP  RCUT    TYP  RCUT                                                     
     0    -23.9615318     23  1.200                                                                 
     0     -9.5240782     23  1.200                                                                 
     1     -9.0304911     23  1.520                                                                 
     1      8.1634956     23  1.520                                                                 
     2     -9.5240782      7  1.500                                                                 
  local pseudopotential read in
  partial core-charges read in
  partial kinetic energy density read in
  kinetic energy density of atom read in
  atomic valenz-charges read in
  non local Contribution for L=           0  read in
    real space projection operators read in
  non local Contribution for L=           0  read in
    real space projection operators read in
  non local Contribution for L=           1  read in
    real space projection operators read in
  non local Contribution for L=           1  read in
    real space projection operators read in
    PAW grid and wavefunctions read in
 
   number of l-projection  operators is LMAX  =           4
   number of lm-projection operators is LMMAX =           8
 
 POTCAR:    PAW_PBE Sr_sv 07Sep2000               
   SHA256 =  a8389d3481648516ee67182ee030b298d280b37e29cbbf2d8595f040d757c710 Sr_sv/POTCAR          
   COPYR  = (c) Copyright 07Sep2000 Georg Kresse                                                    
   COPYR  = This file is part of the software VASP. Any use, copying, and all other rights are regul
   COPYR  = If you do not have a valid VASP license, you may not use, copy or distribute this file. 
   VRHFIN =Sr: 4s4p5s                                                                               
   LEXCH  = PE                                                                                      
   EATOM  =   843.0319 eV,   61.9611 Ry                                                             
                                                                                                    
   TITEL  = PAW_PBE Sr_sv 07Sep2000                                                                 
   LULTRA =        F    use ultrasoft PP ?                                                          
   IUNSCR =        1    unscreen: 0-lin 1-nonlin 2-no                                               
   RPACOR =    2.200    partial core radius                                                         
   POMASS =   87.620; ZVAL   =   10.000    mass and valenz                                          
   RCORE  =    2.500    outmost cutoff radius                                                       
   RWIGS  =    4.040; RWIGS  =    2.138    wigner-seitz radius (au A)                               
   ENMAX  =  229.353; ENMIN  =  172.014 eV                                                          
   RCLOC  =    2.201    cutoff for local pot                                                        
   LCOR   =        T    correct aug charges                                                         
   LPAW   =        T    paw PP                                                                      
   EAUG   =  366.804                                                                                
   DEXC   =    0.000                                                                                
   RMAX   =    2.547    core radius for proj-oper                                                   
   RAUG   =    1.300    factor for augmentation sphere                                              
   RDEP   =    2.562    radius for radial grids                                                     
   RDEPT  =    2.128    core radius for aug-charge                                                  
                                                                                                    
   Atomic configuration                                                                             
   10 entries                                                                                       
     n  l   j            E        occ.                                                              
     1  0  0.50    -15934.8930   2.0000                                                             
     2  0  0.50     -2157.6250   2.0000                                                             
     2  1  1.50     -1917.0034   6.0000                                                             
     3  0  0.50      -333.7288   2.0000                                                             
     3  1  1.50      -256.0992   6.0000                                                             
     3  2  2.50      -127.9971  10.0000                                                             
     4  0  0.50       -40.8953   2.0000                                                             
     5  0  0.50        -3.5257   1.9990                                                             
     4  1  1.50       -22.8179   6.0000                                                             
     4  2  1.50        -1.2815   0.0010                                                             
   Description                                                                                      
     l       E           TYP  RCUT    TYP  RCUT                                                     
     0    -40.8953213     23  2.480                                                                 
     0     -3.5257161     23  2.480                                                                 
     1    -22.8178632     23  2.500                                                                 
     1    -24.1784458     23  2.500                                                                 
     2     -1.2814598     23  2.500                                                                 
     2      0.2279365     23  2.500                                                                 
  local pseudopotential read in
  partial core-charges read in
  partial kinetic energy density read in
  atomic valenz-charges read in
  non local Contribution for L=           0  read in
    real space projection operators read in
  non local Contribution for L=           0  read in
    real space projection operators read in
  non local Contribution for L=           1  read in
    real space projection operators read in
  non local Contribution for L=           1  read in
    real space projection operators read in
  non local Contribution for L=           2  read in
    real space projection operators read in
  non local Contribution for L=           2  read in
    real space projection operators read in
    PAW grid and wavefunctions read in
 
   number of l-projection  operators is LMAX  =           6
   number of lm-projection operators is LMMAX =          18
 
 POTCAR:    PAW_PBE Ti_sv 26Sep2005               
   SHA256 =  4d747badb5a5ea28d858fbac70885b3f8929d6fd9e5b0dbe1ecb9878dc164da1 Ti_sv/POTCAR          
   COPYR  = (c) Copyright 26Sep2005 Georg Kresse                                                    
   COPYR  = This file is part of the software VASP. Any use, copying, and all other rights are regul
   COPYR  = If you do not have a valid VASP license, you may not use, copy or distribute this file. 
   VRHFIN =Ti: 3p4s3d                                                                               
   LEXCH  = PE                                                                                      
   EATOM  =  1588.0892 eV,  116.7213 Ry                                                             
                                                                                                    
   TITEL  = PAW_PBE Ti_sv 26Sep2005                                                                 
   LULTRA =        F    use ultrasoft PP ?                                                          
   IUNSCR =        1    unscreen: 0-lin 1-nonlin 2-no                                               
   RPACOR =    2.000    partial core radius                                                         
   POMASS =   47.880; ZVAL   =   12.000    mass and valenz                                          
   RCORE  =    2.300    outmost cutoff radius                                                       
   RWIGS  =    2.300; RWIGS  =    1.217    wigner-seitz radius (au A)                               
   ENMAX  =  274.610; ENMIN  =  205.957 eV                                                          
   ICORE  =        3    local potential                                                             
   LCOR   =        T    correct aug charges                                                         
   LPAW   =        T    paw PP                                                                      
   EAUG   =  482.848                                                                                
   RMAX   =    2.348    core radius for proj-oper                                                   
   RAUG   =    1.300    factor for augmentation sphere                                              
   RDEP   =    2.381    radius for radial grids                                                     
   RDEPT  =    1.930    core radius for aug-charge                                                  
                                                                                                    
   Atomic configuration                                                                             
    8 entries                                                                                       
     n  l   j            E        occ.                                                              
     1  0  0.50     -4865.3608   2.0000                                                             
     2  0  0.50      -533.1368   2.0000                                                             
     2  1  1.50      -440.5031   6.0000                                                             
     3  0  0.50       -59.3186   2.0000                                                             
     4  0  0.50        -3.7291   1.0000                                                             
     3  1  1.50       -35.7012   6.0000                                                             
     3  2  2.50        -1.9157   3.0000                                                             
     4  3  2.50        -1.3606   0.0000                                                             
   Description                                                                                      
     l       E           TYP  RCUT    TYP  RCUT                                                     
     0    -59.3185931     23  1.800                                                                 
     0     -3.7290822     23  2.300                                                                 
     1    -35.7012045     23  2.300                                                                 
     1     -1.3605826     23  2.300                                                                 
     2     -1.9156920     23  2.300                                                                 
     2     -0.0236318     23  2.300                                                                 
     3     -1.3605826     23  2.300                                                                 
  local pseudopotential read in
  partial core-charges read in
  partial kinetic energy density read in
  atomic valenz-charges read in
  non local Contribution for L=           0  read in
    real space projection operators read in
  non local Contribution for L=           0  read in
    real space projection operators read in
  non local Contribution for L=           1  read in
    real space projection operators read in
  non local Contribution for L=           1  read in
    real space projection operators read in
  non local Contribution for L=           2  read in
    real space projection operators read in
  non local Contribution for L=           2  read in
    real space projection operators read in
    PAW grid and wavefunctions read in
 
   number of l-projection  operators is LMAX  =           6
   number of lm-projection operators is LMMAX =          18
 
 POTCAR:    PAW_PBE H 15Jun2001                   
   SHA256 =  030f79b5d3ab3cf0e668861823c8fb652ff669f3e15e46930bd03bfd63a607b6 H/POTCAR              
   COPYR  = (c) Copyright 15Jun2001 Georg Kresse                                                    
   COPYR  = This file is part of the software VASP. Any use, copying, and all other rights are regul
   COPYR  = If you do not have a valid VASP license, you may not use, copy or distribute this file. 
   VRHFIN =H: ultrasoft test                                                                        
   LEXCH  = PE                                                                                      
   EATOM  =    12.4884 eV,    0.9179 Ry                                                             
                                                                                                    
   TITEL  = PAW_PBE H 15Jun2001                                                                     
   LULTRA =        F    use ultrasoft PP ?                                                          
   IUNSCR =        0    unscreen: 0-lin 1-nonlin 2-no                                               
   RPACOR =    0.000    partial core radius                                                         
   POMASS =    1.000; ZVAL   =    1.000    mass and valenz                                          
   RCORE  =    1.100    outmost cutoff radius                                                       
   RWIGS  =    0.700; RWIGS  =    0.370    wigner-seitz radius (au A)                               
   ENMAX  =  250.000; ENMIN  =  200.000 eV                                                          
   RCLOC  =    0.701    cutoff for local pot                                                        
   LCOR   =        T    correct aug charges                                                         
   LPAW   =        T    paw PP                                                                      
   EAUG   =  400.000                                                                                
   RMAX   =    1.123    core radius for proj-oper                                                   
   RAUG   =    1.200    factor for augmentation sphere                                              
   RDEP   =    1.112    radius for radial grids                                                     
   RDEPT  =    0.926    core radius for aug-charge                                                  
                                                                                                    
   Atomic configuration                                                                             
    2 entries                                                                                       
     n  l   j            E        occ.                                                              
     1  0  0.50        -6.4927   1.0000                                                             
     2  1  0.50        -3.4015   0.0000                                                             
   Description                                                                                      
     l       E           TYP  RCUT    TYP  RCUT                                                     
     0     -6.4927494     23  1.100                                                                 
     0      6.8029130     23  1.100                                                                 
     1     -4.0817478     23  1.100                                                                 
  local pseudopotential read in
  atomic valenz-charges read in
  non local Contribution for L=           0  read in
    real space projection operators read in
  non local Contribution for L=           0  read in
    real space projection operators read in
  non local Contribution for L=           1  read in
    real space projection operators read in
    PAW grid and wavefunctions read in
 
   number of l-projection  operators is LMAX  =           3
   number of lm-projection operators is LMMAX =           5
 
 Optimization of the real space projectors (new method)

 maximal supplied QI-value         = 15.12
 optimisation between [QCUT,QGAM] = [ 11.34, 22.83] = [ 36.00,145.93] Ry 
 Optimized for a Real-space Cutoff    1.39 Angstroem

   l    n(q)    QCUT    max X(q) W(low)/X(q) W(high)/X(q)  e(spline) 
   2      9    11.338    60.898    0.39E-03    0.42E-03    0.21E-06
   2      9    11.338    58.894    0.40E-03    0.42E-03    0.22E-06
   0      9    11.338   109.617    0.13E-03    0.20E-04    0.13E-06
   0      9    11.338    75.026    0.13E-03    0.20E-04    0.13E-06
   1      9    11.338    16.344    0.33E-04    0.24E-03    0.18E-06
   1      9    11.338    10.160    0.26E-04    0.19E-03    0.15E-06
 Optimization of the real space projectors (new method)

 maximal supplied QI-value         = 24.76
 optimisation between [QCUT,QGAM] = [ 11.39, 22.77] = [ 36.31,145.25] Ry 
 Optimized for a Real-space Cutoff    1.00 Angstroem

   l    n(q)    QCUT    max X(q) W(low)/X(q) W(high)/X(q)  e(spline) 
   0      7    11.387    20.381    0.39E-03    0.13E-02    0.15E-06
   0      7    11.387    15.268    0.42E-03    0.14E-02    0.17E-06
   1      6    11.387     5.964    0.41E-03    0.11E-02    0.17E-06
   1      6    11.387     5.382    0.39E-03    0.87E-03    0.15E-06
 Optimization of the real space projectors (new method)

 maximal supplied QI-value         = 15.12
 optimisation between [QCUT,QGAM] = [ 11.34, 22.83] = [ 36.00,145.93] Ry 
 Optimized for a Real-space Cutoff    1.56 Angstroem

   l    n(q)    QCUT    max X(q) W(low)/X(q) W(high)/X(q)  e(spline) 
   0     11    11.338    11.565    0.26E-04    0.80E-05    0.70E-07
   0     11    11.338    10.214    0.41E-04    0.15E-04    0.15E-06
   1     10    11.338   189.983    0.18E-03    0.52E-04    0.42E-06
   1     10    11.338   193.105    0.19E-03    0.52E-04    0.42E-06
   2     10    11.338   115.941    0.22E-03    0.42E-03    0.43E-06
   2     10    11.338    76.444    0.21E-03    0.41E-03    0.42E-06
 Optimization of the real space projectors (new method)

 maximal supplied QI-value         = 16.25
 optimisation between [QCUT,QGAM] = [ 11.38, 22.75] = [ 36.24,144.96] Ry 
 Optimized for a Real-space Cutoff    1.27 Angstroem

   l    n(q)    QCUT    max X(q) W(low)/X(q) W(high)/X(q)  e(spline) 
   0      9    11.376    12.277    0.53E-04    0.25E-04    0.25E-07
   0      9    11.376    11.419    0.89E-04    0.67E-05    0.35E-07
   1      8    11.376     4.010    0.13E-03    0.11E-03    0.29E-07
   1      8    11.376     6.182    0.94E-04    0.19E-03    0.11E-06
   2      8    11.376    47.177    0.13E-03    0.88E-03    0.24E-06
   2      8    11.376    42.437    0.13E-03    0.86E-03    0.23E-06
 Optimization of the real space projectors (new method)

 maximal supplied QI-value         = 34.20
 optimisation between [QCUT,QGAM] = [ 11.29, 22.57] = [ 35.68,142.71] Ry 
 Optimized for a Real-space Cutoff    1.16 Angstroem

   l    n(q)    QCUT    max X(q) W(low)/X(q) W(high)/X(q)  e(spline) 
   0      8    11.287    19.460    0.40E-03    0.73E-03    0.16E-06
   0      8    11.287    12.209    0.38E-03    0.70E-03    0.15E-06
   1      7    11.287     4.655    0.22E-03    0.25E-04    0.22E-06
 -----------------------------------------------------------------------------
|                                                                             |
|               ----> ADVICE to this user running VASP <----                  |
|                                                                             |
|     You enforced a specific xc type in the INCAR file but a different       |
|     type was found in the POTCAR file.                                      |
|     I HOPE YOU KNOW WHAT YOU ARE DOING!                                     |
|                                                                             |
 -----------------------------------------------------------------------------

  PAW_PBE Au 04Oct2007                  :
 energy of atom  1       EATOM= -926.0867
 kinetic energy error for atom=    0.0042 (will be added to EATOM!!)
  PAW_PBE O 08Apr2002                   :
 energy of atom  2       EATOM= -432.3788
 kinetic energy error for atom=    0.0224 (will be added to EATOM!!)
  PAW_PBE Sr_sv 07Sep2000               :
 energy of atom  3       EATOM= -843.0319
 kinetic energy error for atom=    0.0012 (will be added to EATOM!!)
  PAW_PBE Ti_sv 26Sep2005               :
 energy of atom  4       EATOM=-1588.0892
 kinetic energy error for atom=    0.0046 (will be added to EATOM!!)
  PAW_PBE H 15Jun2001                   :
 energy of atom  5       EATOM=  -12.4884
 kinetic energy error for atom=    0.0020 (will be added to EATOM!!)
 
 
 POSCAR: Au O  Sr Ti H
  positions in cartesian coordinates
  No initial velocities read in
 exchange correlation table for  LEXCH =       17
   RHO(1)=    0.500       N(1)  =     2000
   RHO(2)=  100.500       N(2)  =     4000

 VTST: version 4.1, (05/19/21)

 CHAIN: initializing optimizer
 
 OPT: Using VASP Dynamics algorithm
 CHAIN: Read ICHAIN            0
 
 POSCAR: Au O  Sr Ti H
  positions in cartesian coordinates
  No initial velocities read in
 


--------------------------------------------------------------------------------------------------------


 ion  position               nearest neighbor table
   1  0.718  0.526  0.754-  16 2.72  15 2.72  14 2.78  44 2.83   2 2.83  29 2.97  46 3.06
   2  0.625  0.567  0.704- 264 2.08  15 2.81   1 2.83  46 2.87  48 2.88  16 2.92  12 2.93  36 3.07
                            11 3.30   5 3.52 380 3.70
   3  0.719  0.259  0.692- 294 2.07 253 2.08  32 2.66  43 2.78  27 2.84 401 3.05 371 4.01 370 4.03

   4  0.291  0.746  0.698- 310 2.06 266 2.06   9 2.78  23 2.82  50 3.08  42 3.34  45 3.53 368 4.24
                           372 4.25
   5  0.514  0.604  0.777-  26 2.69  48 2.74  13 2.84  12 2.91  47 2.93  39 2.93  16 3.00   6 3.13
                            49 3.39  31 3.47   2 3.52
   6  0.577  0.725  0.793-  18 2.73  36 2.73  17 2.77  47 2.81  13 2.98   5 3.13  48 3.15  16 3.46

   7  0.550  0.384  0.830-  10 2.76  33 2.80  29 2.86  20 2.87  31 2.97  34 2.98  12 3.04  41 3.40

   8  0.242  0.468  0.709- 309 2.11  19 2.68  24 2.80  45 2.83  40 2.96  35 3.07 378 4.16
   9  0.283  0.661  0.766-  45 2.70  50 2.75  30 2.76   4 2.78  24 2.80
  10  0.602  0.289  0.788-   7 2.76  41 2.79  32 2.79  27 2.80  43 2.80  25 3.11  34 3.26
  11  0.515  0.483  0.678- 279 2.11 247 2.16  26 2.70  12 2.78  49 2.89  34 2.91 389 3.13   2 3.30
                            46 3.34 375 3.54  37 3.59 386 4.05
  12  0.563  0.486  0.763-  11 2.78  34 2.80  49 2.84  29 2.85  31 2.89   5 2.91   2 2.93  46 3.00
                            16 3.00   7 3.04
  13  0.464  0.695  0.830-  50 2.81   5 2.84  30 2.85  47 2.86  39 2.89  18 2.92   6 2.98
  14  0.765  0.432  0.706- 254 2.01  44 2.72   1 2.78  46 2.79  43 2.88 363 3.73 370 4.23
  15  0.734  0.616  0.694- 292 2.10 250 2.11  36 2.67   1 2.72   2 2.81  28 3.24 380 3.42 365 3.73

  16  0.636  0.584  0.800-   1 2.72  47 2.77  36 2.78  31 2.82   2 2.92  12 3.00   5 3.00  29 3.24
                             6 3.46
  17  0.595  0.785  0.713- 257 2.09   6 2.77  28 2.79  48 2.94  18 2.95  36 3.10 379 4.14 384 4.33

  18  0.484  0.779  0.757-   6 2.73  23 2.82  50 2.86  42 2.87  13 2.92  17 2.95  48 3.38
  19  0.349  0.501  0.697- 291 2.10   8 2.68  37 2.89  49 2.89  24 2.90  40 2.96  45 3.00  26 3.04
                           368 4.12 369 4.26
  20  0.431  0.372  0.816-  33 2.78  21 2.80   7 2.87  49 2.92  41 2.94  40 2.98  38 3.03  34 3.17

  21  0.373  0.299  0.756-  37 2.77  35 2.78  20 2.80  40 2.82  22 2.86  41 2.86
  22  0.441  0.229  0.697- 302 2.01 289 2.15  41 2.74  25 2.78  21 2.86  37 3.59 376 3.87 367 4.34

  23  0.390  0.816  0.707- 290 2.08  42 2.77  50 2.80   4 2.82  18 2.82 372 3.65 384 4.13
  24  0.290  0.536  0.778-   9 2.80   8 2.80  38 2.82  40 2.88  45 2.89  19 2.90  30 2.90
  25  0.555  0.208  0.712- 311 2.13  22 2.78  41 2.83  27 2.87  32 2.87  10 3.11 376 3.94 371 4.33

  26  0.454  0.580  0.703- 291 2.11   5 2.69  11 2.70  42 2.73  49 2.85  48 2.88  19 3.04 386 3.62

  27  0.614  0.319  0.698- 263 2.04  43 2.77  10 2.80   3 2.84  46 2.84  34 2.86  25 2.87  32 3.46
                           370 3.59 375 4.23
  28  0.706  0.758  0.688- 293 2.05 250 2.05  36 2.63  17 2.79 400 3.13  15 3.24 379 3.79 380 4.19

  29  0.656  0.441  0.812-  44 2.85  12 2.85   7 2.86  31 2.86  43 2.90   1 2.97  16 3.24  46 3.48

  30  0.369  0.618  0.820-   9 2.76  39 2.79  38 2.84  13 2.85  24 2.90  50 2.95
  31  0.571  0.510  0.857-  33 2.77  16 2.82  29 2.86  12 2.89  47 2.91  39 2.91   7 2.97   5 3.47

  32  0.665  0.194  0.752-   3 2.66  10 2.79  25 2.87  27 3.46  43 3.50
  33  0.473  0.451  0.879-  31 2.77  20 2.78  39 2.78   7 2.80  38 2.82
  34  0.516  0.377  0.734-  12 2.80  41 2.81  49 2.86  27 2.86  11 2.91   7 2.98  37 3.10  20 3.17
                            10 3.26  46 3.60 375 4.19
  35  0.284  0.338  0.703- 267 2.06  21 2.78  40 2.82  37 2.90   8 3.07 369 3.53 378 4.10
  36  0.669  0.681  0.749-  28 2.63  15 2.67   6 2.73  16 2.78   2 3.07  17 3.10  48 3.28
  37  0.398  0.382  0.690- 303 2.03 289 2.13  21 2.77  19 2.89  35 2.90  40 3.00  49 3.05  34 3.10
                           369 3.39  22 3.59  11 3.59 375 3.78
  38  0.376  0.492  0.834-  24 2.82  33 2.82  30 2.84  49 2.84  40 2.85  39 2.90  20 3.03
  39  0.464  0.574  0.863-  33 2.78  30 2.79  47 2.83  13 2.89  38 2.90  31 2.91   5 2.93
  40  0.327  0.414  0.770-  35 2.82  21 2.82  38 2.85  24 2.88  19 2.96   8 2.96  20 2.98  37 3.00
                            49 3.10
  41  0.487  0.268  0.775-  22 2.74  10 2.79  34 2.81  25 2.83  21 2.86  20 2.94   7 3.40
  42  0.425  0.698  0.699- 256 2.03  26 2.73  23 2.77  50 2.80  18 2.87  48 2.94   4 3.34 386 4.02
                           368 4.13
  43  0.700  0.346  0.757-  27 2.77   3 2.78  10 2.80  44 2.82  14 2.88  29 2.90  46 3.04  32 3.50

  44  0.774  0.429  0.796-  14 2.72  43 2.82   1 2.83  29 2.85
  45  0.256  0.592  0.695- 265 2.03 310 2.11   9 2.70   8 2.83  24 2.89  19 3.00   4 3.53 368 3.58
                           373 3.71
  46  0.648  0.441  0.697- 279 2.19  14 2.79  27 2.84   2 2.87  12 3.00  43 3.04   1 3.06  11 3.34
                            29 3.48 370 3.49  34 3.60
  47  0.566  0.640  0.861-  16 2.77   6 2.81  39 2.83  13 2.86  31 2.91   5 2.93
  48  0.545  0.665  0.701- 280 2.11   5 2.74  26 2.88   2 2.88  17 2.94  42 2.94   6 3.15  36 3.28
                            18 3.38 386 3.49
  49  0.443  0.475  0.756-  38 2.84  12 2.84  26 2.85  34 2.86  19 2.89  11 2.89  20 2.92  37 3.05
                            40 3.10   5 3.39
  50  0.373  0.737  0.778-   9 2.75  23 2.80  42 2.80  13 2.81  18 2.86  30 2.95   4 3.08
  51  0.250  0.189  0.454- 448 1.97 418 2.13 319 2.73 342 2.81 360 2.81 327 2.86
  52  0.749  0.939  0.455- 417 1.95 444 2.00 350 2.82 339 2.84 322 2.85 332 2.87
  53  0.749  0.689  0.457- 432 1.98 446 2.04 325 2.78 362 2.83 348 2.85 316 2.88
  54  0.749  0.438  0.456- 422 1.99 458 2.01 323 2.71 347 2.82 359 2.84 349 2.85
  55  0.750  0.189  0.456- 445 1.99 423 2.12 324 2.74 335 2.81 346 2.84 358 2.85
  56  0.417  0.936  0.454- 424 2.00 440 2.01 357 2.77 345 2.79 329 2.86 320 2.91
  57  0.417  0.685  0.455- 414 1.91 443 2.04 356 2.77 344 2.78 321 2.84 331 2.90
  58  0.416  0.435  0.454- 415 1.96 442 2.01 343 2.77 355 2.78 333 2.84 318 2.85
  59  0.085  0.687  0.453- 439 1.97 413 2.09 352 2.75 340 2.80 330 2.81 336 2.95
  60  0.084  0.937  0.453- 436 1.99 412 2.12 353 2.77 341 2.79 338 2.86 326 2.91
  61  0.083  0.437  0.453- 438 1.97 421 2.12 361 2.76 351 2.78 328 2.79 317 2.93
  62  0.084  0.187  0.453- 437 1.98 433 2.14 360 2.77 385 2.78 327 2.87 337 2.89
  63  0.917  0.812  0.454- 434 1.98 411 2.12 362 2.76 341 2.80 339 2.81 336 2.86
  64  0.916  0.562  0.454- 435 1.98 410 2.11 349 2.78 316 2.79 340 2.80 317 2.89
  65  0.251  0.439  0.455- 449 1.98 420 2.07 318 2.70 343 2.81 351 2.85 328 2.86
  66  0.916  0.062  0.454- 455 1.98 430 2.09 358 2.79 385 2.80 332 2.86 338 2.91
  67  0.916  0.312  0.454- 456 1.97 429 2.09 359 2.79 361 2.80 335 2.82 337 2.91
  68  0.417  0.187  0.454- 441 1.98 416 2.07 354 2.78 342 2.79 334 2.81 319 2.87
  69  0.252  0.687  0.456- 419 1.99 450 2.03 321 2.75 344 2.79 352 2.87 330 2.90
  70  0.916  0.937  0.454- 455 1.98 411 2.10 339 2.79 341 2.80 332 2.87 338 2.90
  71  0.583  0.189  0.455- 452 1.98 426 2.10 334 2.73 324 2.78 354 2.83 346 2.84
  72  0.000  0.124  0.499- 430 1.97 433 1.98 385 2.75 338 2.78 337 2.80
  73  0.584  0.810  0.455- 454 1.97 431 2.10 325 2.71 331 2.76 350 2.84 357 2.86
  74  1.000  0.373  0.498- 429 1.94 421 1.95 361 2.74 337 2.78 317 2.85
  75  1.000  0.627  0.498- 413 1.93 410 1.94 340 2.72 336 2.78 317 2.84
  76  0.334  0.126  0.498- 416 1.95 418 2.01 319 2.74 342 2.74 320 2.79 367 3.45
  77  1.000  0.876  0.500- 411 1.97 412 1.98 338 2.77 341 2.79 336 2.79
  78  0.333  0.874  0.499- 424 1.97 425 2.00 321 2.74 345 2.76 320 2.85 372 3.12
  79  0.666  0.125  0.500- 426 1.96 423 2.02 324 2.73 322 2.79 346 2.79 371 3.39
  80  0.336  0.625  0.504- 414 1.92 419 2.08 368 2.74 321 2.81 318 2.81 344 2.91
  81  0.334  0.379  0.503- 415 1.94 420 2.08 318 2.70 369 2.71 343 2.88 319 2.91
  82  0.666  0.379  0.503- 428 1.94 422 2.06 323 2.70 370 2.73 347 2.89 324 2.93
  83  0.915  0.687  0.453- 434 1.97 410 2.10 316 2.75 340 2.80 362 2.80 336 2.94
  84  0.916  0.437  0.454- 435 1.98 429 2.11 359 2.78 349 2.78 361 2.80 317 2.91
  85  0.917  0.187  0.454- 456 1.98 430 2.12 335 2.78 385 2.79 358 2.79 337 2.89
  86  0.583  0.936  0.454- 451 2.00 431 2.06 357 2.77 350 2.79 322 2.86 329 2.88
  87  0.583  0.686  0.455- 427 1.91 454 2.02 356 2.78 348 2.80 325 2.84 331 2.85
  88  0.583  0.439  0.456- 453 2.00 428 2.02 333 2.70 323 2.79 355 2.84 347 2.86
  89  0.250  0.936  0.454- 425 1.94 447 2.01 345 2.78 353 2.78 320 2.89 326 2.91
  90  0.665  0.626  0.503- 427 1.93 432 2.06 380 2.72 325 2.81 323 2.82 348 2.88
  91  0.585  0.563  0.455- 427 1.99 453 2.01 333 2.77 348 2.79 323 2.79 356 2.83
  92  0.583  0.063  0.454- 451 2.00 426 2.03 354 2.79 346 2.80 322 2.83 329 2.87
  93  0.917  0.687  0.361- 434 1.97 340 2.79 316 2.79
  94  0.917  0.437  0.361- 435 1.97 361 2.79 359 2.79
  95  0.917  0.188  0.361- 456 1.97 385 2.79 358 2.79
  96  0.583  0.938  0.361- 451 1.97 357 2.79 350 2.79
  97  0.583  0.687  0.361- 454 1.97 356 2.79 348 2.79
  98  0.583  0.437  0.361- 453 1.97 355 2.79 347 2.79
  99  0.583  0.188  0.361- 452 1.97 354 2.79 346 2.79
 100  0.250  0.938  0.361- 447 1.97 353 2.79 345 2.79
 101  0.917  0.938  0.361- 455 1.97 341 2.79 339 2.79
 102  0.250  0.687  0.361- 450 1.97 352 2.79 344 2.79
 103  0.250  0.188  0.361- 448 1.97 360 2.79 342 2.79
 104  0.750  0.938  0.361- 444 1.97 350 2.79 339 2.79
 105  0.750  0.687  0.361- 446 1.97 348 2.79 316 2.79
 106  0.750  0.437  0.361- 458 1.97 347 2.79 359 2.79
 107  0.750  0.188  0.361- 445 1.97 346 2.79 358 2.79
 108  0.417  0.938  0.361- 440 1.97 345 2.79 357 2.79
 109  0.417  0.687  0.361- 443 1.97 344 2.79 356 2.79
 110  0.417  0.437  0.361- 442 1.97 343 2.79 355 2.79
 111  0.250  0.437  0.361- 449 1.97 351 2.79 343 2.79
 112  0.083  0.063  0.361- 436 1.97 385 2.79 360 2.79
 113  0.083  0.312  0.361- 437 1.97 361 2.79 351 2.79
 114  0.083  0.563  0.361- 438 1.97 352 2.79 340 2.79
 115  0.917  0.312  0.361- 456 1.97 361 2.79 359 2.79
 116  0.917  0.063  0.361- 455 1.97 385 2.79 358 2.79
 117  0.583  0.812  0.361- 454 1.97 357 2.79 350 2.79
 118  0.583  0.563  0.361- 453 1.97 356 2.79 348 2.79
 119  0.583  0.312  0.361- 452 1.97 355 2.79 347 2.79
 120  0.583  0.063  0.361- 451 1.97 354 2.79 346 2.79
 121  0.250  0.812  0.361- 450 1.97 353 2.79 345 2.79
 122  0.250  0.563  0.361- 449 1.97 352 2.79 344 2.79
 123  0.250  0.312  0.361- 448 1.97 351 2.79 343 2.79
 124  0.250  0.063  0.361- 447 1.97 360 2.79 342 2.79
 125  0.750  0.812  0.361- 446 1.97 350 2.79 339 2.79
 126  0.750  0.563  0.361- 458 1.97 348 2.79 316 2.79
 127  0.750  0.312  0.361- 445 1.97 347 2.79 359 2.79
 128  0.750  0.063  0.361- 444 1.97 346 2.79 358 2.79
 129  0.417  0.812  0.361- 443 1.97 345 2.79 357 2.79
 130  0.417  0.563  0.361- 442 1.97 344 2.79 356 2.79
 131  0.417  0.312  0.361- 441 1.97 343 2.79 355 2.79
 132  0.417  0.063  0.361- 440 1.97 342 2.79 354 2.79
 133  0.083  0.812  0.361- 439 1.97 353 2.79 341 2.79
 134  0.417  0.188  0.361- 441 1.97 342 2.79 354 2.79
 135  0.083  0.938  0.361- 436 1.97 353 2.79 341 2.79
 136  0.083  0.687  0.361- 439 1.97 352 2.79 340 2.79
 137  0.083  0.437  0.361- 438 1.97 361 2.79 351 2.79
 138  0.833  0.500  0.407- 458 1.97 435 1.97 316 2.79 359 2.79 349 2.88
 139  0.833  0.750  0.407- 446 1.97 434 1.97 339 2.79 316 2.79 362 2.86
 140  0.084  0.062  0.454- 436 1.98 433 2.11 360 2.80 385 2.81 338 2.84 326 2.86
 141  0.084  0.312  0.454- 437 1.97 421 2.10 351 2.79 361 2.80 337 2.88 327 2.89
 142  0.084  0.562  0.454- 438 1.98 413 2.11 328 2.75 352 2.79 340 2.81 317 2.91
 143  0.083  0.812  0.454- 439 1.98 412 2.12 330 2.77 353 2.80 341 2.81 336 2.88
 144  0.417  0.062  0.455- 416 1.96 440 2.00 354 2.83 329 2.83 342 2.83 320 2.83
 145  0.416  0.311  0.457- 415 1.92 441 2.04 334 2.81 319 2.82 343 2.84 355 2.88
 146  0.416  0.559  0.458- 414 1.97 442 2.02 333 2.73 318 2.74 344 2.88 356 2.90
 147  0.416  0.810  0.455- 443 1.96 424 2.09 321 2.73 331 2.79 345 2.84 357 2.86
 148  0.750  0.064  0.453- 444 1.99 423 2.02 346 2.77 358 2.78 322 2.90 332 2.92
 149  0.747  0.314  0.455- 422 2.00 445 2.02 347 2.75 324 2.82 359 2.83 335 2.94
 150  0.748  0.564  0.454- 432 1.99 458 2.01 348 2.74 323 2.76 316 2.81 349 2.93
 151  0.749  0.813  0.453- 446 1.98 417 2.10 350 2.76 339 2.80 325 2.81 362 2.88
 152  0.250  0.062  0.454- 447 1.98 418 2.11 342 2.80 360 2.81 320 2.84 326 2.87
 153  0.916  0.312  0.546- 429 1.85 409 2.21 335 2.70 337 2.73 363 2.89 381 3.34
 154  0.252  0.314  0.454- 420 1.97 448 2.01 343 2.74 319 2.77 351 2.82 327 2.96
 155  0.252  0.565  0.454- 419 1.99 449 2.01 344 2.74 318 2.77 352 2.80 328 2.93
 156  0.250  0.810  0.456- 450 1.98 425 2.07 321 2.75 330 2.82 345 2.84 353 2.85
 157  0.833  0.250  0.407- 445 1.97 456 1.97 359 2.79 358 2.79 335 2.89
 158  0.584  0.315  0.454- 428 1.95 452 2.02 347 2.76 355 2.79 334 2.86 324 2.87
 159  0.833  0.000  0.407- 444 1.97 455 1.97 358 2.79 339 2.79 332 2.97
 160  0.500  0.500  0.407- 453 1.97 442 1.97 355 2.79 356 2.79 333 2.80
 161  0.083  0.188  0.361- 437 1.97 385 2.79 360 2.79
 162  0.000  0.000  0.407- 455 1.97 436 1.97 385 2.79 341 2.79 338 2.95
 163  0.000  0.250  0.407- 456 1.97 437 1.97 361 2.79 385 2.79 337 2.97
 164  0.000  0.500  0.407- 435 1.97 438 1.97 340 2.79 361 2.79 317 3.00
 165  0.000  0.750  0.407- 434 1.97 439 1.97 341 2.79 340 2.79 336 2.99
 166  0.333  0.000  0.407- 440 1.97 447 1.97 342 2.79 345 2.79 320 2.96
 167  0.333  0.250  0.407- 441 1.97 448 1.97 343 2.79 342 2.79 319 2.87
 168  0.333  0.500  0.407- 442 1.97 449 1.97 343 2.79 344 2.79 318 2.82
 169  0.333  0.750  0.407- 443 1.97 450 1.97 345 2.79 344 2.79 321 2.84
 170  0.667  0.000  0.407- 444 1.97 451 1.97 346 2.79 350 2.79 322 2.94
 171  0.667  0.250  0.407- 445 1.97 452 1.97 347 2.79 346 2.79 324 2.88
 172  0.667  0.500  0.407- 458 1.97 453 1.97 347 2.79 348 2.79 323 2.81
 173  0.667  0.750  0.407- 446 1.97 454 1.97 350 2.79 348 2.79 325 2.85
 174  0.167  0.000  0.407- 447 1.97 436 1.97 360 2.79 353 2.79 326 2.98
 175  0.167  0.250  0.407- 448 1.97 437 1.97 351 2.79 360 2.79 327 2.98
 176  0.167  0.500  0.407- 449 1.97 438 1.97 351 2.79 352 2.79 328 2.86
 177  0.167  0.750  0.407- 450 1.97 439 1.97 353 2.79 352 2.79 330 2.89
 178  0.500  0.000  0.407- 451 1.97 440 1.97 354 2.79 357 2.79 329 2.95
 179  0.500  0.250  0.407- 452 1.97 441 1.97 355 2.79 354 2.79 334 2.85
 180  0.500  0.750  0.407- 454 1.97 443 1.97 357 2.79 356 2.79 331 2.91
 181  0.167  0.125  0.499- 418 1.96 433 2.00 360 2.75 327 2.76 326 2.77
 182  0.916  0.061  0.546- 430 1.85 387 2.15 332 2.66 338 2.73 383 3.20 315 3.34
 183  0.168  0.873  0.500- 425 1.93 412 2.02 330 2.72 353 2.78 326 2.87
 184  0.252  0.188  0.547- 418 1.87 395 2.13 319 2.65 327 2.72 367 3.13 377 3.32
 185  0.751  0.935  0.548- 417 1.83 402 2.26 332 2.75 322 2.82 379 2.99 364 3.07
 186  0.752  0.680  0.553- 432 1.96 400 1.97 380 2.65 365 2.85 362 2.97 325 3.01
 187  0.753  0.434  0.549- 422 1.92 399 2.06 370 2.74 349 2.82 323 2.87 363 2.93
 188  0.423  0.444  0.546- 408 1.88 415 2.06 333 2.61 318 2.84 375 2.88 369 3.12
 189  0.423  0.688  0.547- 414 1.95 398 2.00 331 2.67 386 2.77 321 2.87 368 2.94
 190  0.749  0.183  0.551- 423 1.94 401 1.96 324 2.80 335 2.90 371 3.01 383 3.09
 191  0.416  0.936  0.546- 424 1.84 396 2.27 320 2.72 329 2.72 372 2.88 384 3.06
 192  0.086  0.938  0.546- 412 1.83 406 2.20 326 2.65 338 2.72 374 3.25 366 3.41
 193  0.416  0.191  0.547- 397 1.85 416 2.03 319 2.73 334 2.73 376 3.08 367 3.24
 194  0.086  0.690  0.545- 413 1.85 405 2.21 330 2.62 336 2.73 373 2.78
 195  0.083  0.439  0.545- 421 1.84 404 2.23 317 2.66 328 2.68 378 3.07 381 3.35
 196  0.084  0.188  0.546- 433 1.85 403 2.19 327 2.65 337 2.67 315 3.28 377 3.36
 197  0.499  0.126  0.499- 416 1.98 426 2.00 334 2.72 354 2.76 329 2.84 376 3.21
 198  1.000  0.499  0.594- 457 1.95 404 1.95 317 2.62 381 2.89 382 3.12
 199  0.999  0.754  0.592- 405 1.94 407 1.96 336 2.57 366 2.83 382 3.32
 200  0.335  0.254  0.593- 397 1.90 395 2.06 369 2.67 319 2.70 367 3.06
 201  0.334  1.000  0.592- 396 1.99 394 2.02 320 2.59 372 2.73 367 2.76
 202  0.003  0.996  0.591- 387 1.87 406 2.01 338 2.58 366 2.90 315 2.99
 203  0.001  0.248  0.592- 409 1.94 403 2.00 337 2.59 315 2.89 381 2.97
 204  0.333  0.497  0.591- 408 1.85 390 2.16 318 2.70 369 2.74 368 2.85
 205  0.336  0.740  0.591- 398 1.92 391 2.06 368 2.59 321 2.69 372 3.11
 206  0.663  0.247  0.591- 392 1.89 401 2.14 324 2.63 371 2.78 370 2.79
 207  0.663  0.001  0.591- 402 1.89 393 2.01 322 2.56 379 2.75 371 2.89
 208  0.666  0.742  0.590- 388 1.96 400 2.04 380 2.58 325 2.65 379 3.11
 209  0.667  0.493  0.591- 389 1.81 399 2.13 370 2.71 323 2.71 380 2.98
 210  0.168  0.999  0.592- 394 1.97 406 1.98 326 2.58 377 2.91 374 2.93
 211  0.169  0.250  0.593- 395 1.94 403 2.02 327 2.61 378 2.76 377 2.96
 212  0.171  0.749  0.595- 391 1.86 405 2.16 373 2.76 330 2.76 374 2.83
 213  0.248  0.436  0.549- 390 1.94 420 1.98 369 2.65 318 2.82 328 2.84 378 3.03
 214  0.165  0.503  0.588- 390 1.83 404 2.05 328 2.57 373 2.80 378 3.00
 215  0.249  0.683  0.552- 391 1.96 419 1.97 368 2.74 373 2.90 330 2.91 321 2.92
 216  0.581  0.186  0.549- 426 1.93 392 1.99 334 2.74 324 2.83 376 2.93 371 3.04
 217  0.914  0.813  0.547- 411 1.84 407 2.19 362 2.67 336 2.73 364 3.14 366 3.36
 218  0.917  0.563  0.546- 410 1.84 457 2.23 317 2.68 349 2.71 365 2.85
 219  0.581  0.560  0.549- 389 1.89 427 2.09 386 2.69 333 2.75 380 2.82 323 2.87
 220  0.586  0.815  0.550- 431 1.91 388 2.07 325 2.76 331 2.82 379 2.88 384 3.03
 221  0.583  0.312  0.546- 428 1.89 392 2.10 334 2.73 324 2.76 375 2.77 370 2.88
 222  0.581  0.063  0.546- 426 1.84 393 2.22 329 2.68 322 2.73 376 2.94 371 3.15
 223  0.253  0.813  0.551- 391 1.82 425 2.08 321 2.79 372 2.86 330 2.90 374 3.15
 224  0.252  0.559  0.544- 419 1.92 390 2.04 318 2.63 328 2.78 368 2.87 373 3.19
 225  0.249  0.314  0.546- 420 1.85 395 2.30 369 2.66 327 2.72 319 2.73 378 3.04
 226  0.251  0.063  0.547- 418 1.84 394 2.26 320 2.68 326 2.72 367 3.03 377 3.27
 227  0.749  0.809  0.546- 400 1.84 417 2.03 325 2.68 362 2.75 379 3.16 364 3.23
 228  0.746  0.558  0.545- 432 1.95 399 1.98 323 2.61 349 2.78 380 2.85 365 3.23
 229  0.414  0.812  0.548- 398 1.96 424 1.97 321 2.72 331 2.78 372 2.90 384 3.10
 230  0.751  0.058  0.545- 423 1.84 402 2.19 332 2.63 322 2.68 383 3.27 371 3.28
 231  0.748  0.311  0.548- 422 1.97 401 1.98 370 2.66 324 2.73 335 2.84 363 3.04
 232  0.416  0.320  0.553- 397 1.96 415 1.98 375 2.66 369 2.73 319 2.98 334 2.99
 233  0.420  0.565  0.555- 408 1.90 414 2.13 386 2.65 368 2.70 333 2.92 318 3.04
 234  0.416  0.065  0.547- 416 1.84 396 2.26 320 2.74 329 2.76 376 2.94 367 3.08
 235  0.085  0.813  0.547- 412 1.85 405 2.17 330 2.67 336 2.74 374 3.17 366 3.34
 236  0.082  0.564  0.546- 413 1.84 404 2.22 317 2.69 328 2.73 373 2.82
 237  0.086  0.313  0.547- 421 1.84 403 2.24 327 2.68 337 2.76 378 2.89 381 3.35
 238  0.085  0.062  0.547- 433 1.83 406 2.23 326 2.67 338 2.72 315 3.25 377 3.28
 239  0.913  0.939  0.547- 411 1.86 387 2.15 332 2.61 338 2.79 364 3.14 366 3.43
 240  0.913  0.690  0.545- 410 1.84 407 2.23 362 2.63 336 2.72 365 2.82
 241  0.582  0.938  0.545- 431 1.83 393 2.26 329 2.66 322 2.69 379 2.98 384 3.07
 242  0.917  0.187  0.546- 430 1.85 409 2.18 335 2.68 337 2.71 383 3.19 315 3.32
 243  0.916  0.437  0.546- 429 1.85 457 2.25 349 2.67 317 2.70 363 2.94 381 3.35
 244  0.577  0.436  0.552- 389 1.95 428 2.04 375 2.63 333 2.75 370 2.95 323 3.02
 245  0.580  0.686  0.547- 427 1.92 388 2.11 386 2.66 331 2.71 380 2.82 325 2.85
 246  0.252  0.937  0.545- 425 1.83 394 2.23 320 2.67 326 2.73 372 2.93 374 3.31
 247  0.498  0.504  0.609- 408 2.10  11 2.16 389 2.25 386 2.73 375 3.00 333 3.26
 248  0.499  0.253  0.590- 397 1.99 392 2.03 375 2.65 334 2.65 376 2.95
 249  0.499  0.000  0.591- 393 1.97 396 1.98 329 2.57 376 2.76 384 2.83
 250  0.754  0.693  0.657-  28 2.05  15 2.11 400 2.40 365 3.02 380 3.19
 251  0.747  0.937  0.639- 402 1.81 379 2.54 364 2.55
 252  0.254  0.187  0.641- 395 1.74 367 2.51 377 2.54
 253  0.746  0.194  0.647- 401 1.99   3 2.08 371 2.66 383 2.75
 254  0.756  0.436  0.639- 399 1.98  14 2.01 363 2.60 370 2.82
 255  0.417  0.935  0.640- 396 1.80 384 2.52 372 2.58
 256  0.422  0.676  0.634- 398 2.03  42 2.03 386 2.55 368 2.63
 257  0.590  0.810  0.646- 388 1.94  17 2.09 379 2.61 384 2.81
 258  0.918  0.062  0.640- 387 1.81 315 2.50 383 2.55
 259  0.913  0.562  0.643- 457 1.79 382 2.45 365 2.54
 260  0.915  0.312  0.639- 409 1.80 381 2.50 363 2.52
 261  0.914  0.813  0.641- 407 1.79 364 2.50 366 2.52
 262  0.581  0.066  0.640- 393 1.79 371 2.51 376 2.52
 263  0.583  0.320  0.634- 392 1.96  27 2.04 375 2.53 370 2.67
 264  0.592  0.564  0.640- 389 1.98   2 2.08 380 2.64 386 2.83
 265  0.247  0.574  0.629- 390 1.99  45 2.03 368 2.55 373 2.55
 266  0.262  0.798  0.647- 391 1.96   4 2.06 372 2.81 374 2.91
 267  0.250  0.317  0.641- 395 1.94  35 2.06 378 2.59 369 2.65
 268  0.251  0.059  0.642- 394 1.79 367 2.49 377 2.50
 269  0.917  0.563  0.361- 435 1.97 340 2.79 316 2.79
 270  0.500  0.374  0.500- 415 1.97 428 2.00 355 2.78 333 2.80 334 2.82 375 2.86
 271  0.500  0.872  0.500- 424 1.97 431 2.00 331 2.67 357 2.79 329 2.85 384 3.28
 272  0.500  0.621  0.500- 427 1.98 414 1.98 333 2.71 356 2.79 386 2.82 331 2.94
 273  0.832  0.623  0.500- 432 1.89 410 2.05 349 2.75 316 2.79 362 2.87 365 3.10
 274  0.832  0.874  0.498- 417 1.95 411 2.02 339 2.72 362 2.74 332 2.83 364 3.52
 275  0.833  0.373  0.499- 422 1.90 429 2.04 359 2.77 335 2.79 349 2.84 363 3.15
 276  0.833  0.125  0.499- 423 1.95 430 2.02 335 2.75 358 2.77 332 2.79 383 3.50
 277  0.167  0.376  0.498- 420 1.90 421 2.03 351 2.72 328 2.76 327 2.87 378 3.30
 278  0.168  0.624  0.500- 419 1.89 413 2.07 328 2.78 352 2.79 330 2.84 373 3.06
 279  0.582  0.438  0.646- 389 2.11  11 2.11  46 2.19 375 2.85 370 3.01
 280  0.581  0.685  0.639- 388 1.87  48 2.11 386 2.62 380 2.76
 281  0.916  0.186  0.640- 409 1.79 383 2.49 315 2.52
 282  0.580  0.935  0.639- 393 1.80 384 2.48 379 2.51
 283  0.830  0.750  0.593- 400 1.86 407 2.10 362 2.72 365 2.79 364 2.87
 284  0.832  0.248  0.591- 401 1.84 409 2.12 335 2.64 363 2.81 383 2.84
 285  0.833  0.504  0.589- 399 1.83 457 2.06 349 2.59 365 2.78 363 2.97
 286  0.832  0.002  0.599- 459 0.97 402 2.15 387 2.21 383 2.78 332 2.80 364 2.87
 287  0.501  0.756  0.593- 388 1.98 398 2.02 331 2.67 384 2.72 386 2.94
 288  0.417  0.065  0.640- 396 1.80 367 2.51 376 2.54
 289  0.427  0.305  0.655-  37 2.13  22 2.15 397 2.31 375 2.93 369 3.40
 290  0.412  0.812  0.640- 398 1.95  23 2.08 372 2.60 384 2.68
 291  0.398  0.551  0.652-  19 2.10  26 2.11 408 2.16 368 2.80 386 3.47
 292  0.752  0.571  0.634- 399 1.92  15 2.10 365 2.61 380 2.68
 293  0.741  0.810  0.640- 400 1.97  28 2.05 379 2.60 364 2.71
 294  0.747  0.313  0.640- 401 1.99   3 2.07 370 2.62 363 2.74
 295  0.746  0.067  0.639- 402 1.80 371 2.48 383 2.53
 296  0.084  0.312  0.640- 403 1.80 381 2.49 378 2.51
 297  0.667  0.875  0.500- 431 1.97 417 1.99 325 2.75 350 2.78 322 2.80 379 3.22
 298  0.087  0.562  0.642- 404 1.80 382 2.47 373 2.54
 299  0.084  0.060  0.642- 406 1.80 315 2.50 377 2.50
 300  0.087  0.437  0.640- 404 1.79 378 2.51 381 2.53
 301  0.085  0.186  0.642- 403 1.79 315 2.48 377 2.49
 302  0.418  0.188  0.640- 397 2.00  22 2.01 376 2.62 367 2.68
 303  0.415  0.419  0.630-  37 2.03 408 2.07 375 2.53 369 2.59
 304  0.086  0.935  0.641- 406 1.80 374 2.48 366 2.50
 305  0.083  0.687  0.640- 405 1.80 382 2.45 373 2.51
 306  0.913  0.436  0.640- 457 1.80 363 2.51 381 2.53
 307  0.917  0.688  0.640- 407 1.80 382 2.45 365 2.51
 308  0.915  0.937  0.640- 387 1.81 366 2.51 364 2.52
 309  0.241  0.442  0.642- 390 1.90   8 2.11 378 2.62 369 2.92
 310  0.254  0.677  0.664-   4 2.06  45 2.11 368 3.03 373 3.13
 311  0.578  0.191  0.644- 392 1.91  25 2.13 371 2.66 376 2.67
 312  0.252  0.930  0.637- 394 1.80 374 2.46 372 2.49
 313  0.085  0.811  0.642- 405 1.79 374 2.48 366 2.50
 314  0.917  0.812  0.361- 434 1.97 341 2.79 339 2.79
 315  0.002  0.125  0.621- 301 2.48 299 2.50 258 2.50 281 2.52 203 2.89 202 2.99 238 3.25 196 3.28
                           242 3.32 182 3.34 387 3.39 403 3.41 409 3.42 406 3.49 433 3.91 377 3.93
 316  0.833  0.625  0.407-  83 2.75  64 2.79 273 2.79 126 2.79 105 2.79 269 2.79  93 2.79 138 2.79
                           139 2.79 150 2.81  53 2.88 458 3.42 446 3.42 435 3.42 434 3.42 432 3.45
 317  0.999  0.500  0.507- 198 2.62 195 2.66 218 2.68 236 2.69 243 2.70  75 2.84  74 2.85  64 2.89
                            84 2.91 142 2.91  61 2.93 164 3.00 410 3.39 413 3.40 429 3.41 421 3.42
 318  0.331  0.499  0.501- 224 2.63  81 2.70  65 2.70 204 2.70 146 2.74 155 2.77  80 2.81 213 2.82
                           168 2.82 188 2.84  58 2.85 233 3.04 408 3.35 449 3.41 419 3.42 415 3.44
 319  0.330  0.248  0.503- 184 2.65 200 2.70 193 2.73 225 2.73  51 2.73  76 2.74 154 2.77 145 2.82
                            68 2.87 167 2.87  81 2.91 232 2.98 397 3.32 418 3.36 420 3.42 448 3.44
 320  0.333  0.001  0.506- 201 2.59 246 2.67 226 2.68 191 2.72 234 2.74  76 2.79 144 2.83 152 2.84
                            78 2.85  89 2.89  56 2.91 166 2.96 416 3.34 425 3.38 418 3.40 424 3.41
 321  0.334  0.751  0.502- 205 2.69 229 2.72 147 2.73  78 2.74 156 2.75  69 2.75 223 2.79  80 2.81
                            57 2.84 169 2.84 189 2.87 215 2.92 391 3.37 398 3.40 414 3.41 424 3.42
 322  0.665  0.000  0.505- 207 2.56 230 2.68 241 2.69 222 2.73  79 2.79 297 2.80 185 2.82  92 2.83
                            52 2.85  86 2.86 148 2.90 170 2.94 426 3.36 431 3.38 423 3.38 417 3.39
 323  0.669  0.500  0.501- 228 2.61  82 2.70  54 2.71 209 2.71 150 2.76  88 2.79  91 2.79 172 2.81
                            90 2.82 219 2.87 187 2.87 244 3.02 389 3.34 458 3.41 422 3.41 432 3.42
 324  0.667  0.247  0.503- 206 2.63 231 2.73  79 2.73  55 2.74 221 2.76  71 2.78 190 2.80 149 2.82
                           216 2.83 158 2.87 171 2.88  82 2.93 426 3.41 401 3.42 428 3.43 423 3.44
 325  0.666  0.752  0.502- 208 2.65 227 2.68  73 2.71 297 2.75 220 2.76  53 2.78 151 2.81  90 2.81
                            87 2.84 245 2.85 173 2.85 186 3.01 400 3.35 431 3.38 427 3.39 454 3.45
 326  0.167  0.001  0.506- 210 2.58 192 2.65 238 2.67 226 2.72 246 2.73 181 2.77 140 2.86 183 2.87
                           152 2.87  60 2.91  89 2.91 174 2.98 425 3.36 418 3.38 433 3.39 412 3.44
 327  0.166  0.248  0.506- 211 2.61 196 2.65 237 2.68 184 2.72 225 2.72 181 2.76  51 2.86 277 2.87
                            62 2.87 141 2.89 154 2.96 175 2.98 420 3.37 418 3.38 433 3.39 421 3.46
 328  0.163  0.500  0.502- 214 2.57 195 2.68 236 2.73 142 2.75 277 2.76 278 2.78 224 2.78  61 2.79
                           213 2.84  65 2.86 176 2.86 155 2.93 390 3.33 421 3.40 419 3.42 413 3.43
 329  0.500  0.999  0.505- 249 2.57 241 2.66 222 2.68 191 2.72 234 2.76 144 2.83 197 2.84 271 2.85
                            56 2.86  92 2.87  86 2.88 178 2.95 424 3.38 416 3.38 431 3.40 426 3.40
 330  0.164  0.751  0.503- 194 2.62 235 2.67 183 2.72 212 2.76 143 2.77  59 2.81 156 2.82 278 2.84
                           177 2.89  69 2.90 223 2.90 215 2.91 391 3.34 412 3.37 413 3.43 419 3.45
 331  0.501  0.753  0.504- 271 2.67 189 2.67 287 2.67 245 2.71  73 2.76 229 2.78 147 2.79 220 2.82
                            87 2.85  57 2.90 180 2.91 272 2.94 431 3.38 398 3.38 424 3.41 427 3.42
 332  0.834  0.000  0.506- 239 2.61 230 2.63 182 2.66 185 2.75 276 2.79 286 2.80 274 2.83  66 2.86
                            52 2.87  70 2.87 148 2.92 159 2.97 417 3.35 423 3.35 430 3.40 411 3.40
 333  0.501  0.500  0.500- 188 2.61  88 2.70 272 2.71 146 2.73 244 2.75 219 2.75  91 2.77 160 2.80
                           270 2.80  58 2.84 233 2.92 247 3.26 453 3.41 428 3.43 442 3.44 415 3.45
 334  0.501  0.248  0.502- 248 2.65 197 2.72  71 2.73 193 2.73 221 2.73 216 2.74 145 2.81  68 2.81
                           270 2.82 179 2.85 158 2.86 232 2.99 397 3.37 426 3.39 428 3.42 452 3.45
 335  0.836  0.248  0.503- 284 2.64 242 2.68 153 2.70 276 2.75  85 2.78 275 2.79  55 2.81  67 2.82
                           231 2.84 157 2.89 190 2.90 149 2.94 401 3.35 430 3.39 429 3.43 422 3.46
 336  1.000  0.751  0.507- 199 2.57 240 2.72 194 2.73 217 2.73 235 2.74  75 2.78  77 2.79  63 2.86
                           143 2.88  83 2.94  59 2.95 165 2.99 413 3.39 410 3.39 412 3.40 411 3.40
 337  0.001  0.249  0.506- 203 2.59 196 2.67 242 2.71 153 2.73 237 2.76  74 2.78  72 2.80 141 2.88
                            62 2.89  85 2.89  67 2.91 163 2.97 421 3.39 429 3.40 433 3.40 430 3.42
 338  0.002  1.000  0.505- 202 2.58 238 2.72 192 2.72 182 2.73  77 2.77  72 2.78 239 2.79 140 2.84
                            60 2.86  70 2.90  66 2.91 162 2.95 412 3.39 433 3.39 387 3.40 430 3.41
 339  0.833  0.875  0.407- 274 2.72  70 2.79 125 2.79 104 2.79 314 2.79 101 2.79 139 2.79 159 2.79
                           151 2.80  63 2.81  52 2.84 446 3.42 434 3.42 444 3.42 455 3.42 417 3.48
 340  0.000  0.625  0.407-  75 2.72 269 2.79  93 2.79 114 2.79 136 2.79 164 2.79 165 2.79  59 2.80
                            83 2.80  64 2.80 142 2.81 435 3.42 434 3.42 438 3.42 439 3.42 413 3.53
 341  0.000  0.875  0.407-  60 2.79 314 2.79 133 2.79 101 2.79 135 2.79 165 2.79 162 2.79  77 2.79
                            63 2.80  70 2.80 143 2.81 434 3.42 439 3.42 455 3.42 436 3.42 411 3.58
 342  0.333  0.125  0.407-  76 2.74 132 2.79 134 2.79 124 2.79 103 2.79 166 2.79 167 2.79  68 2.79
                           152 2.80  51 2.81 144 2.83 440 3.42 441 3.42 447 3.42 448 3.42 416 3.47
 343  0.333  0.375  0.407- 154 2.74  58 2.77 110 2.79 131 2.79 111 2.79 123 2.79 167 2.79 168 2.79
                            65 2.81 145 2.84  81 2.88 441 3.42 442 3.42 448 3.42 449 3.42 415 3.43
 344  0.333  0.625  0.407- 155 2.74  57 2.78  69 2.79 130 2.79 109 2.79 122 2.79 102 2.79 168 2.79
                           169 2.79 146 2.88  80 2.91 442 3.42 443 3.42 449 3.42 450 3.42 414 3.45
 345  0.333  0.875  0.407-  78 2.76  89 2.78  56 2.79 129 2.79 121 2.79 108 2.79 100 2.79 169 2.79
                           166 2.79 156 2.84 147 2.84 443 3.42 450 3.42 440 3.42 447 3.42 425 3.49
 346  0.667  0.125  0.407- 148 2.77  79 2.79 128 2.79 107 2.79 120 2.79  99 2.79 170 2.79 171 2.79
                            92 2.80  55 2.84  71 2.84 444 3.42 445 3.42 451 3.42 452 3.42 426 3.54
 347  0.667  0.375  0.407- 149 2.75 158 2.76 106 2.79 127 2.79  98 2.79 119 2.79 171 2.79 172 2.79
                            54 2.82  88 2.86  82 2.89 445 3.42 458 3.42 453 3.42 452 3.42 428 3.47
 348  0.667  0.625  0.407- 150 2.74 126 2.79 105 2.79 118 2.79  97 2.79 172 2.79 173 2.79  91 2.79
                            87 2.80  53 2.85  90 2.88 458 3.42 446 3.42 453 3.42 454 3.42 427 3.43
 349  0.836  0.500  0.503- 285 2.59 243 2.67 218 2.71 273 2.75 228 2.78  64 2.78  84 2.78 187 2.82
                           275 2.84  54 2.85 138 2.88 150 2.93 399 3.36 422 3.41 432 3.42 410 3.42
 350  0.667  0.875  0.407- 151 2.76 297 2.78  86 2.79 125 2.79 104 2.79 117 2.79  96 2.79 173 2.79
                           170 2.79  52 2.82  73 2.84 446 3.42 454 3.42 444 3.42 451 3.42 417 3.50
 351  0.167  0.375  0.407- 277 2.72  61 2.78 111 2.79 137 2.79 123 2.79 113 2.79 176 2.79 175 2.79
                           141 2.79 154 2.82  65 2.85 448 3.42 449 3.42 437 3.42 438 3.42 420 3.44
 352  0.167  0.625  0.407-  59 2.75 142 2.79 122 2.79 102 2.79 114 2.79 136 2.79 176 2.79 177 2.79
                           278 2.79 155 2.80  69 2.87 449 3.42 450 3.42 438 3.42 439 3.42 419 3.45
 353  0.167  0.875  0.407-  60 2.77 183 2.78  89 2.78 121 2.79 133 2.79 100 2.79 135 2.79 177 2.79
                           174 2.79 143 2.80 156 2.85 450 3.42 439 3.42 447 3.42 436 3.42 425 3.47
 354  0.500  0.125  0.407- 197 2.76  68 2.78 120 2.79  99 2.79 132 2.79 134 2.79 178 2.79 179 2.79
                            92 2.79 144 2.83  71 2.83 451 3.42 452 3.42 440 3.42 441 3.42 416 3.49
 355  0.500  0.375  0.407-  58 2.78 270 2.78 158 2.79  98 2.79 119 2.79 110 2.79 131 2.79 179 2.79
                           160 2.79  88 2.84 145 2.88 452 3.42 453 3.42 441 3.42 442 3.42 415 3.44
 356  0.500  0.625  0.407-  57 2.77  87 2.78 118 2.79  97 2.79 130 2.79 109 2.79 160 2.79 180 2.79
                           272 2.79  91 2.83 146 2.90 453 3.42 454 3.42 442 3.42 443 3.42 414 3.44
 357  0.500  0.875  0.407-  56 2.77  86 2.77 117 2.79 129 2.79  96 2.79 108 2.79 180 2.79 178 2.79
                           271 2.79 147 2.86  73 2.86 454 3.42 443 3.42 451 3.42 440 3.42 424 3.51
 358  0.833  0.125  0.407- 276 2.77 148 2.78  66 2.79 128 2.79 107 2.79 116 2.79  95 2.79 159 2.79
                           157 2.79  85 2.79  55 2.85 444 3.42 445 3.42 455 3.42 456 3.42 423 3.54
 359  0.833  0.375  0.407- 275 2.77  84 2.78  67 2.79 106 2.79 127 2.79  94 2.79 115 2.79 157 2.79
                           138 2.79 149 2.83  54 2.84 445 3.42 458 3.42 456 3.42 435 3.42 422 3.45
 360  0.167  0.125  0.407- 181 2.75  62 2.77 124 2.79 103 2.79 112 2.79 161 2.79 174 2.79 175 2.79
                           140 2.80 152 2.81  51 2.81 447 3.42 448 3.42 436 3.42 437 3.42 418 3.58
 361  0.000  0.375  0.407-  74 2.74  61 2.76  94 2.79 115 2.79 137 2.79 113 2.79 163 2.79 164 2.79
                            84 2.80 141 2.80  67 2.80 435 3.42 456 3.42 438 3.42 437 3.42 429 3.54
 362  0.836  0.752  0.502- 240 2.63 217 2.67 283 2.72 274 2.74 227 2.75  63 2.76  83 2.80  53 2.83
                           139 2.86 273 2.87 151 2.88 186 2.97 400 3.31 411 3.37 410 3.43 434 3.44
 363  0.837  0.372  0.605- 306 2.51 260 2.52 254 2.60 294 2.74 284 2.81 153 2.89 187 2.93 243 2.94
                           285 2.97 231 3.04 275 3.15 409 3.40 401 3.42 457 3.44 399 3.49 429 3.53
 364  0.832  0.876  0.615- 261 2.50 308 2.52 251 2.55 293 2.71 459 2.83 283 2.87 286 2.87 185 3.07
                           239 3.14 217 3.14 227 3.23 400 3.42 407 3.46 274 3.52 387 3.56 402 3.56
 365  0.841  0.627  0.603- 307 2.51 259 2.54 292 2.61 285 2.78 283 2.79 240 2.82 186 2.85 218 2.85
                           250 3.02 273 3.10 228 3.23 407 3.33 457 3.37 399 3.42 410 3.44 400 3.53
 366  0.001  0.874  0.624- 304 2.50 313 2.50 308 2.51 261 2.52 199 2.83 202 2.90 235 3.34 217 3.36
                           387 3.39 405 3.40 192 3.41 407 3.41 239 3.43 406 3.49 374 3.95 364 3.99
 367  0.331  0.120  0.613- 268 2.49 288 2.51 252 2.51 302 2.68 201 2.76 226 3.03 200 3.06 234 3.08
                           184 3.13 193 3.24 394 3.36 396 3.36 395 3.43  76 3.45 397 3.55 418 3.75
 368  0.334  0.624  0.596- 265 2.55 205 2.59 256 2.63 233 2.70 215 2.74  80 2.74 291 2.80 204 2.85
                           224 2.87 189 2.94 310 3.03 408 3.36 398 3.41 414 3.44 419 3.46 391 3.50
 369  0.326  0.374  0.593- 303 2.59 267 2.65 213 2.65 225 2.66 200 2.67  81 2.71 232 2.73 204 2.74
                           309 2.92 188 3.12 420 3.29  37 3.39 395 3.40 289 3.40 390 3.41 408 3.42
 370  0.671  0.372  0.594- 294 2.62 231 2.66 263 2.67 209 2.71  82 2.73 187 2.74 206 2.79 254 2.82
                           221 2.88 244 2.95 279 3.01 422 3.35 401 3.39 428 3.45 389 3.45 392 3.46
 371  0.664  0.127  0.613- 295 2.48 262 2.51 311 2.66 253 2.66 206 2.78 207 2.89 190 3.01 216 3.04
                           222 3.15 230 3.28 392 3.34 402 3.34  79 3.39 393 3.44 401 3.49 426 3.76
 372  0.335  0.878  0.603- 312 2.49 255 2.58 290 2.60 201 2.73 266 2.81 223 2.86 191 2.88 229 2.90
                           246 2.93 205 3.11  78 3.12 394 3.32 396 3.34 398 3.46 391 3.48 424 3.54
 373  0.159  0.627  0.602- 305 2.51 298 2.54 265 2.55 212 2.76 194 2.78 214 2.80 236 2.82 215 2.90
                           278 3.06 310 3.13 224 3.19 405 3.32 404 3.37 413 3.41 390 3.50 391 3.54
 374  0.167  0.872  0.618- 312 2.46 313 2.48 304 2.48 212 2.83 266 2.91 210 2.93 223 3.15 235 3.17
                           192 3.25 246 3.31 391 3.40 406 3.43 405 3.43 394 3.45 412 3.89 366 3.95
 375  0.502  0.372  0.595- 263 2.53 303 2.53 244 2.63 248 2.65 232 2.66 221 2.77 279 2.85 270 2.86
                           188 2.88 289 2.93 247 3.00 392 3.38 428 3.40 397 3.43 415 3.48 408 3.53
 376  0.500  0.123  0.606- 262 2.52 288 2.54 302 2.62 311 2.67 249 2.76 216 2.93 234 2.94 222 2.94
                           248 2.95 193 3.08 197 3.21 393 3.31 396 3.36 392 3.45 397 3.49 426 3.62
 377  0.168  0.123  0.622- 301 2.49 268 2.50 299 2.50 252 2.54 210 2.91 211 2.96 226 3.27 238 3.28
                           184 3.32 196 3.36 395 3.40 406 3.43 394 3.44 403 3.48 367 3.87 315 3.93
 378  0.163  0.372  0.608- 300 2.51 296 2.51 267 2.59 309 2.62 211 2.76 237 2.89 214 3.00 213 3.03
                           225 3.04 195 3.07 277 3.30 403 3.33 390 3.41 395 3.46 404 3.47 421 3.61
 379  0.664  0.880  0.607- 282 2.51 251 2.54 293 2.60 257 2.61 207 2.75 220 2.88 241 2.98 185 2.99
                           208 3.11 227 3.16 297 3.22 402 3.29 393 3.36 388 3.46 400 3.56 431 3.58
 380  0.666  0.627  0.594- 208 2.58 264 2.64 186 2.65 292 2.68  90 2.72 280 2.76 245 2.82 219 2.82
                           228 2.85 209 2.98 250 3.19 389 3.33 388 3.37 427 3.40 432 3.40  15 3.42
 381  1.000  0.375  0.623- 296 2.49 260 2.50 306 2.53 300 2.53 198 2.89 203 2.97 153 3.34 243 3.35
                           195 3.35 237 3.35 404 3.44 457 3.44 409 3.46 403 3.51 363 3.89 378 3.90
 382  1.000  0.622  0.644- 305 2.45 307 2.45 259 2.45 298 2.47 198 3.12 199 3.32 457 3.53 404 3.55
                           405 3.65 407 3.67 365 3.95 373 3.97 317 4.91 336 5.01
 383  0.834  0.125  0.616- 281 2.49 295 2.53 258 2.55 253 2.75 286 2.78 459 2.83 284 2.84 190 3.09
                           242 3.19 182 3.20 230 3.27 401 3.40 409 3.44 276 3.50 402 3.54 387 3.57
 384  0.500  0.876  0.610- 282 2.48 255 2.52 290 2.68 287 2.72 257 2.81 249 2.83 220 3.03 191 3.06
                           241 3.07 229 3.10 271 3.28 393 3.38 396 3.40 388 3.47 398 3.47 431 3.70
 385  0.000  0.125  0.407-  72 2.75  62 2.78 116 2.79  95 2.79 112 2.79 161 2.79 162 2.79 163 2.79
                            85 2.79  66 2.80 140 2.81 455 3.42 456 3.42 436 3.42 437 3.42 430 3.56
 386  0.504  0.625  0.594- 256 2.55 280 2.62 233 2.65 245 2.66 219 2.69 247 2.73 189 2.77 272 2.82
                           264 2.83 287 2.94 427 3.38 388 3.38 389 3.44 414 3.46 291 3.47 398 3.48
 387  0.925  0.999  0.601- 258 1.81 308 1.81 202 1.87 239 2.15 182 2.15 286 2.21 366 3.39 315 3.39
                           338 3.40 364 3.56 383 3.57 332 3.58
 388  0.584  0.750  0.599- 280 1.87 257 1.94 208 1.96 287 1.98 220 2.07 245 2.11 380 3.37 386 3.38
                           379 3.46 384 3.47 331 3.48 325 3.50
 389  0.591  0.501  0.594- 209 1.81 219 1.89 244 1.95 264 1.98 279 2.11 247 2.25  11 3.13 380 3.33
                           323 3.34 386 3.44 370 3.45 333 3.51 375 3.58
 390  0.242  0.498  0.594- 214 1.83 309 1.90 213 1.94 265 1.99 224 2.04 204 2.16 328 3.33 369 3.41
                           378 3.41 318 3.49 373 3.50 368 3.55
 391  0.250  0.752  0.592- 223 1.82 212 1.86 215 1.96 266 1.96 205 2.06 330 3.34 321 3.37 374 3.40
                           372 3.48 368 3.50 373 3.54
 392  0.584  0.248  0.597- 206 1.89 311 1.91 263 1.96 216 1.99 248 2.03 221 2.10 371 3.34 375 3.38
                           324 3.44 376 3.45 370 3.46 334 3.46
 393  0.580  0.001  0.604- 262 1.79 282 1.80 249 1.97 207 2.01 222 2.22 241 2.26 376 3.31 379 3.36
                           384 3.38 371 3.44 329 3.53 322 3.59
 394  0.250  0.997  0.605- 268 1.79 312 1.80 210 1.97 201 2.02 246 2.23 226 2.26 372 3.32 367 3.36
                           377 3.44 374 3.45 326 3.55 320 3.56
 395  0.249  0.246  0.604- 252 1.74 267 1.94 211 1.94 200 2.06 184 2.13 225 2.30 369 3.40 377 3.40
                           367 3.43 378 3.46 327 3.52 319 3.58
 396  0.417  0.000  0.605- 255 1.80 288 1.80 249 1.98 201 1.99 234 2.26 191 2.27 372 3.34 367 3.36
                           376 3.36 384 3.40 320 3.58 329 3.58
 397  0.415  0.249  0.591- 193 1.85 200 1.90 232 1.96 248 1.99 302 2.00 289 2.31 319 3.32 334 3.37
                           375 3.43 369 3.49 376 3.49 367 3.55
 398  0.416  0.750  0.595- 205 1.92 290 1.95 229 1.96 189 2.00 287 2.02 256 2.03 331 3.38 321 3.40
                           368 3.41 372 3.46 384 3.47 386 3.48
 399  0.756  0.503  0.596- 285 1.83 292 1.92 254 1.98 228 1.98 187 2.06 209 2.13 349 3.36 365 3.42
                           363 3.49 380 3.50 323 3.53 370 3.55
 400  0.752  0.753  0.591- 227 1.84 283 1.86 186 1.97 293 1.97 208 2.04 250 2.40  28 3.13 362 3.31
                           325 3.35 364 3.42 380 3.46 365 3.53 379 3.56
 401  0.754  0.248  0.594- 284 1.84 190 1.96 231 1.98 253 1.99 294 1.99 206 2.14   3 3.05 335 3.35
                           370 3.39 383 3.40 363 3.42 324 3.42 371 3.49
 402  0.741  0.002  0.604- 295 1.80 251 1.81 207 1.89 286 2.15 230 2.19 185 2.26 379 3.29 371 3.34
                           322 3.47 383 3.54 364 3.56 332 3.66
 403  0.084  0.248  0.604- 301 1.79 296 1.80 203 2.00 211 2.02 196 2.19 237 2.24 378 3.33 315 3.41
                           377 3.48 381 3.51 327 3.52 337 3.53
 404  0.081  0.500  0.603- 300 1.79 298 1.80 198 1.95 214 2.05 236 2.22 195 2.23 373 3.37 381 3.44
                           378 3.47 317 3.47 382 3.55 328 3.61
 405  0.080  0.750  0.603- 313 1.79 305 1.80 199 1.94 212 2.16 235 2.17 194 2.21 373 3.32 366 3.40
                           374 3.43 336 3.47 330 3.59 382 3.65
 406  0.086  0.998  0.604- 299 1.80 304 1.80 210 1.98 202 2.01 192 2.20 238 2.23 374 3.43 377 3.43
                           366 3.49 315 3.49 326 3.49 338 3.58
 407  0.918  0.751  0.603- 261 1.79 307 1.80 199 1.96 283 2.10 217 2.19 240 2.23 365 3.33 366 3.41
                           364 3.46 336 3.48 362 3.60 382 3.67
 408  0.412  0.497  0.593- 204 1.85 188 1.88 233 1.90 303 2.07 247 2.10 291 2.16 318 3.35 368 3.36
                           369 3.42 333 3.50 375 3.53 386 3.59
 409  0.920  0.248  0.603- 281 1.79 260 1.80 203 1.94 284 2.12 242 2.18 153 2.21 363 3.40 315 3.42
                           383 3.44 381 3.46 337 3.48 335 3.60
 410  0.918  0.626  0.506- 218 1.84 240 1.84  75 1.94 273 2.05  83 2.10  64 2.11 317 3.39 336 3.39
                           349 3.42 362 3.43 365 3.44 340 3.55 316 3.59
 411  0.917  0.876  0.507- 217 1.84 239 1.86  77 1.97 274 2.02  70 2.10  63 2.12 362 3.37 336 3.40
                           332 3.40 338 3.42 341 3.58 339 3.58 364 3.82
 412  0.083  0.875  0.507- 192 1.83 235 1.85  77 1.98 183 2.02 143 2.12  60 2.12 330 3.37 338 3.39
                           336 3.40 326 3.44 341 3.59 353 3.60 374 3.89 366 4.01
 413  0.081  0.626  0.506- 236 1.84 194 1.85  75 1.93 278 2.07  59 2.09 142 2.11 336 3.39 317 3.40
                           373 3.41 328 3.43 330 3.43 340 3.53 352 3.60
 414  0.417  0.626  0.501-  57 1.91  80 1.92 189 1.95 146 1.97 272 1.98 233 2.13 321 3.41 356 3.44
                           368 3.44 344 3.45 333 3.45 331 3.45 386 3.46 318 3.48
 415  0.416  0.374  0.501- 145 1.92  81 1.94  58 1.96 270 1.97 232 1.98 188 2.06 343 3.43 318 3.44
                           355 3.44 333 3.45 334 3.46 319 3.48 375 3.48 369 3.49
 416  0.416  0.122  0.503- 234 1.84  76 1.95 144 1.96 197 1.98 193 2.03  68 2.07 320 3.34 329 3.38
                           334 3.46 319 3.47 342 3.47 354 3.49 376 3.68 367 3.88
 417  0.751  0.879  0.503- 185 1.83 274 1.95  52 1.95 297 1.99 227 2.03 151 2.10 332 3.35 322 3.39
                           325 3.48 362 3.48 339 3.48 350 3.50 379 3.74 364 3.87
 418  0.249  0.125  0.507- 226 1.84 184 1.87 181 1.96  76 2.01 152 2.11  51 2.13 319 3.36 326 3.38
                           327 3.38 320 3.40 360 3.58 342 3.59 367 3.75 377 3.95
 419  0.248  0.624  0.503- 278 1.89 224 1.92 215 1.97  69 1.99 155 1.99  80 2.08 318 3.42 328 3.42
                           330 3.45 352 3.45 368 3.46 321 3.48 344 3.52 373 3.64
 420  0.247  0.373  0.503- 225 1.85 277 1.90 154 1.97 213 1.98  65 2.07  81 2.08 369 3.29 327 3.37
                           319 3.42 351 3.44 328 3.45 318 3.46 343 3.53 378 3.72
 421  0.082  0.375  0.506- 237 1.84 195 1.84  74 1.95 277 2.03 141 2.10  61 2.12 337 3.39 328 3.40
                           317 3.42 327 3.46 361 3.55 351 3.59 378 3.61 381 4.00
 422  0.753  0.375  0.503- 275 1.90 187 1.92 231 1.97  54 1.99 149 2.00  82 2.06 370 3.35 349 3.41
                           323 3.41 359 3.45 335 3.46 324 3.50 347 3.52 363 3.65
 423  0.751  0.122  0.505- 230 1.84 190 1.94 276 1.95  79 2.02 148 2.02  55 2.12 332 3.35 322 3.38
                           324 3.44 335 3.46 358 3.54 346 3.56 371 3.83 383 3.86
 424  0.417  0.876  0.504- 191 1.84 229 1.97  78 1.97 271 1.97  56 2.00 147 2.09 329 3.38 331 3.41
                           320 3.41 321 3.42 345 3.51 357 3.51 372 3.54 384 3.73
 425  0.249  0.879  0.502- 246 1.83 183 1.93  89 1.94  78 2.00 156 2.07 223 2.08 326 3.36 320 3.38
                           353 3.47 330 3.48 321 3.49 345 3.49 372 3.63 374 3.98
 426  0.583  0.123  0.505- 222 1.84 216 1.93  79 1.96 197 2.00  92 2.03  71 2.10 322 3.36 334 3.39
                           329 3.40 324 3.41 354 3.53 346 3.54 376 3.62 371 3.76
 427  0.584  0.627  0.501-  87 1.91 245 1.92  90 1.93 272 1.98  91 1.99 219 2.09 386 3.38 325 3.39
                           380 3.40 331 3.42 348 3.43 356 3.44 333 3.45 323 3.48
 428  0.584  0.373  0.502- 221 1.89  82 1.94 158 1.95 270 2.00  88 2.02 244 2.04 375 3.40 334 3.42
                           333 3.43 324 3.43 370 3.45 323 3.46 347 3.47 355 3.48
 429  0.918  0.374  0.506- 153 1.85 243 1.85  74 1.94 275 2.04  67 2.09  84 2.11 337 3.40 317 3.41
                           349 3.42 335 3.43 363 3.53 361 3.54 359 3.59 381 3.99
 430  0.918  0.124  0.506- 242 1.85 182 1.85  72 1.97 276 2.02  66 2.09  85 2.12 335 3.39 332 3.40
                           338 3.41 337 3.42 385 3.56 358 3.59 383 3.85 315 3.97
 431  0.584  0.876  0.506- 241 1.83 220 1.91 297 1.97 271 2.00  86 2.06  73 2.10 325 3.38 331 3.38
                           322 3.38 329 3.40 350 3.55 357 3.56 379 3.58 384 3.70
 432  0.752  0.624  0.503- 273 1.89 228 1.95 186 1.96  53 1.98 150 1.99  90 2.06 380 3.40 349 3.42
                           323 3.42 316 3.45 362 3.46 325 3.51 348 3.51 365 3.67
[...]
  273            m_sumb_d                              0.438325                       42   5
  274          m_sumb_d                              0.000604                          7   4
  275        setdij_                               5.121357                          140   3
  276          m_sumb_d                              1.232559                        140   4
  277        set_dd_magatom                        0.000027                            7   3
  278        set_dd_paw                            0.087690                            7   3
  279          set_rsgf_all                          0.000016                          7   4
  280          m_sumb_d                              0.085331                         49   4
  281        strkin                                0.045751                            7   3
  282          m_sumb_d                              0.006014                          7   4
  283        strelo                                0.052326                            7   3
  284          m_sumb_d                              0.004884                         14   4
  285        strnlr                               67.365178                            7   3
  286          rspher_all                            2.281384                         63   4
  287          phaser                                0.000036                         63   4
  288          rpro_isp                             64.464973                         63   4
  289            fftwav_mpi                           53.476276                     8820   5
  290              fft3d_mpi                            45.815870                   8820   6
  291                fftbrc_mpi                           35.399354                 8820   7
  292                  fftbas_plan_mpi                      35.369721               8820   8
  293                    dfftw_execute                        16.872265            26460   9
  294                    map_forward                          12.929612            17640   9
  295                      map_gather                            0.967511           8820  10
  296                      m_alltoallv_z                         4.673717           8820  10
  297                      map_scatter                           2.516766           8820  10
  298            rpromu                               10.902761                     2205   5
  299              rpromu_gemm                           3.346573                 502740   6
  300              m_sumb_d                              1.394615                   8820   6
  301          m_sumb_d                              0.472229                          7   4
  302        m_sumb_d                              0.053591                           49   3
  303        fft3d_mpi                             4.598154                          497   3
  304          fftbrc_mpi                            4.380579                        497   4
  305            fftbas_plan_mpi                       4.378995                      497   5
  306              dfftw_execute                         0.638624                   1491   6
  307              map_forward                           1.819138                    490   6
  308                map_gather                            0.034221                  245   7
  309                m_alltoallv_z                         1.507208                  245   7
  310                map_scatter                           0.272608                  245   7
  311              map_backward                          1.563583                    504   6
  312                map_gather                            0.182747                  252   7
  313                m_alltoallv_z                         1.308111                  252   7
  314                map_scatter                           0.067679                  252   7
  315        ggaall_grid                           1.320328                            7   3
  316        forhar                                2.810570                            7   3
  317          m_sumb_d                              0.041065                          7   4
  318        strehar                               0.051472                            7   3
  319          m_sumb_d                              0.006097                          7   4
  320        m_bcast_d                             0.005274                           14   3
  321      potlok                               72.257653                             13   2
  322        fft3d_mpi                            26.126908                         2741   3
  323          fftbrc_mpi                           25.065597                       2741   4
  324            fftbas_plan_mpi                      25.056330                     2741   5
  325              dfftw_execute                         3.530087                   8223   6
  326              map_forward                           9.854274                   2754   6
  327                map_gather                            0.230412                 1390   7
  328                m_alltoallv_z                         8.002396                 1390   7
  329                map_scatter                           1.593275                 1390   7
  330              map_backward                          9.718762                   2728   6
  331                map_gather                            1.035798                 1364   7
  332                m_alltoallv_z                         8.292289                 1364   7
  333                map_scatter                           0.364088                 1364   7
  334        ggaall_grid                          18.876176                          237   3
  335        m_sumb_d                              0.385136                         1224   3
  336        fewald                                0.018153                           26   3
  337          rsp                                   0.016619                         26   4
  338          rcp                                   0.001238                         26   4
  339        pothar                                0.023336                           13   3
  340          m_sumb_d                              0.015923                         13   4
  341        m_bcast_d                             0.057906                           13   3
  342      potlok_metagga                        0.000115                             13   2
  343      set_dd_magatom                        0.000007                              7   2
  344      set_dd_paw                            0.163448                             13   2
  345        set_rsgf_all                          0.000022                           13   3
  346        m_sumb_d                              0.158794                           91   3
  347      m_sumb_d                             51.145061                           3518   2
  348      wavpre_noio                           1.627732                              6   2
  349        stufak                                1.547282                            6   3
  350      eddiag                              192.760289                              6   2
  351        overl                                 0.008098                            6   3
  352        redis_proj                            0.705726                           18   3
  353          m_alltoall_d                          0.698774                       2520   4
  354        fftwav_mpi                            5.794500                          840   3
  355          fft3d_mpi                             4.890149                        840   4
  356            fftbrc_mpi                            3.543528                      840   5
  357              fftbas_plan_mpi                       3.540810                    840   6
  358                dfftw_execute                         1.610909                 2520   7
  359                map_forward                           1.436577                 1680   7
  360                  map_gather                            0.147429                840   8
  361                  m_alltoallv_z                         0.499159                840   8
  362                  map_scatter                           0.242000                840   8
  363        hamilt_local                          4.041302                          840   3
  364          vhamil                                1.123206                        840   4
  365          kinhamil                              2.910692                        840   4
  366            fftext_mpi                            2.861582                      840   5
  367              fft3d_mpi                             2.778096                    840   6
  368                fftbrc_mpi                            2.310222                  840   7
  369                  fftbas_plan_mpi                       2.307155                840   8
  370                    dfftw_execute                         1.161601             2520   9
  371                    map_backward                          0.673874             1680   9
  372                      map_gather                            0.136837            840  10
  373                      m_alltoallv_z                         0.407943            840  10
  374                      map_scatter                           0.115360            840  10
  375        redis_pw                              1.760691                          846   3
  376          m_alltoall_d                          1.701760                       2520   4
  377        orth1                                 2.213637                          420   3
  378        m_sumb_d                              1.223424                            6   3
  379        shift_bands_between_low_high          0.000007                            6   3
  380        lincom                                1.773524                            6   3
 
 Flat profile
 ============
 
             routine name                   CPU           calls
 ---------------------------------------------------------------
 edwav                                4969.150017         314
 potlok                                588.081886         327
 total_time                            541.031880           1
 eddiag                                347.339762         170
 dfftw_execute                         320.399448      571944
 m_sumb_d                              272.684717      326063
 lincom                                259.502560         962
 m_alltoall_d                          258.461466      763140
 m_alltoallv_z                         240.929963      191296
 orth1                                 219.836068       45360
 fft3d_mpi                             180.447442      190648
 fftbas_plan_mpi                       122.734655      190648
 fftwav_mpi                            114.014878      118057
 choleski                              109.109129         321
 eccp                                   90.829382       87920
 ggaall_grid                            79.300642         558
 map_forward                            71.686733      262612
 map_scatter                            58.661170      191296
 racc0                                  44.193289       21980
 pw_charge                              41.144773       37557
 map_gather                             35.833272      191296
 rpro1                                  34.698252       21980
 vhamil                                 32.228282       23800
 w1_dscal                               22.296760       21980
 setdij_                                14.426016         510
 force_and_stress                       12.714375           7
 m_bcast_z                              12.520210        2381
 augmentation_charge                    10.344649         321
 orthch                                  9.406668         321
 rpromu                                  8.901701        3185
 rpromu_gemm                             4.830642      726180
 redis_pw                                4.794847       90552
 elmin_all                               4.290032           7
 fftext_mpi                              3.436724       45780
 rspher_all                              3.270850          92
 forhar                                  2.769505           7
 forloc                                  2.763179           7
 redis_proj                              2.219642       69454
 stufak                                  1.807784           7
 m_bcast_d                               1.460422         357
 overl                                   1.375487       22628
 soft_charge                             1.179975         321
 map_backward                            1.006445      118684
 kinhamil                                0.984070       23800
 fftbrc_mpi                              0.607750      190648
 densta                                  0.602355         322
 rsp                                     0.481907         661
 depsum                                  0.363617         321
 set_charge                              0.211863         321
 hamilt_local                            0.205156       23800
 pothar                                  0.186436         327
 rpro_isp                                0.176781          91
 set_dd_paw                              0.167480         334
 strnlr                                  0.146556           7
 fewald                                  0.092582         661
 fft_gq                                  0.080688         321
 wavpre_noio                             0.080450           6
 strelo                                  0.047442           7
 strehar                                 0.045375           7
 strkin                                  0.039737           7
 fornlr                                  0.039485           7
 rcp                                     0.036419         661
 redis_pw_all                            0.003741         314
 fordep                                  0.002063           7
 redis_pw_over_bands                     0.001264         327
 potlok_metagga                          0.001249         327
 brgrid                                  0.000801           1
 set_rsgf_all                            0.000693         334
 crpa_reader                             0.000282           1
 phaser                                  0.000246         248
 rotate_active_occupied_orbital          0.000107           7
 proall                                  0.000084           7
 set_dd_magatom                          0.000034          14
 vectorpot                               0.000025           1
 shift_bands_between_low_high            0.000019          13
 ---------------------------------------------------------------
  summed up times    9162.72233247757     
 
 Accumulative profile
 ====================
 
             routine name                   CPU           calls
 ---------------------------------------------------------------
 total_time                           9158.232735           1
 elmin_all                            8140.964453           7
 edwav                                6653.607788         314
 fft3d_mpi                            1027.817280      190648
 potlok                                908.094320         327
 fftbrc_mpi                            847.369838      190648
 fftbas_plan_mpi                       846.762088      190648
 fftwav_mpi                            742.584063      118057
 eddiag                                543.588807         170
 orthch                                381.013387         321
 dfftw_execute                         320.399448      571944
 map_forward                           284.237117      262612
 set_charge                            283.956303         321
 m_sumb_d                              272.684717      326063
 soft_charge                           268.035524         321
 lincom                                259.502560         962
 m_alltoall_d                          258.461466      763140
 m_alltoallv_z                         240.929963      191296
 orth1                                 219.836068       45360
 fftext_mpi                            155.426287       45780
 redis_pw                              152.339771       90552
 map_backward                          123.880465      118684
 force_and_stress                      121.121445           7
 hamilt_local                          113.631243       23800
 redis_proj                            113.136184       69454
 choleski                              109.109129         321
 eccp                                   96.303455       87920
 rpro_isp                               93.082217          91
 kinhamil                               81.197805       23800
 ggaall_grid                            79.300642         558
 strnlr                                 67.365178           7
 map_scatter                            58.661170      191296
 racc0                                  56.025767       21980
 pw_charge                              41.144773       37557
 rpro1                                  39.574693       21980
 map_gather                             35.833272      191296
 vhamil                                 32.228282       23800
 fornlr                                 22.491167           7
 w1_dscal                               22.296760       21980
 redis_pw_over_bands                    20.016142         327
 redis_pw_all                           20.014878         314
 setdij_                                19.257830         510
 rpromu                                 15.691910        3185
 augmentation_charge                    15.046830         321
 m_bcast_z                              12.520210        2381
 proall                                  7.174699           7
 rpromu_gemm                             4.830642      726180
 set_dd_paw                              4.273227         334
 rspher_all                              3.270850          92
 forhar                                  2.810570           7
 forloc                                  2.805150           7
 densta                                  2.278777         322
 fft_gq                                  2.083919         321
 stufak                                  1.807784           7
 wavpre_noio                             1.627732           6
 fordep                                  1.599036           7
 m_bcast_d                               1.460422         357
 overl                                   1.375487       22628
 fewald                                  0.814645         661
 depsum                                  0.662086         321
 pothar                                  0.633410         327
 rsp                                     0.481907         661
 strelo                                  0.052326           7
 strehar                                 0.051472           7
 strkin                                  0.045751           7
 rcp                                     0.036419         661
 potlok_metagga                          0.001249         327
 brgrid                                  0.000801           1
 set_rsgf_all                            0.000693         334
 crpa_reader                             0.000282           1
 phaser                                  0.000246         248
 rotate_active_occupied_orbital          0.000107           7
 set_dd_magatom                          0.000034          14
 vectorpot                               0.000025           1
 shift_bands_between_low_high            0.000019          13
 ---------------------------------------------------------------
 
Profiling took   5.242074  1.784063  0.010036  0.009454 seconds
Profiling took   6.084575 seconds
