 vasp.6.3.2 27Jun22 (build Jan 03 2024 23:25:20) gamma-only                     
  
 executed on           IFC15_impi date 2024.02.09  01:30:27
 running  512 mpi-ranks, with    1 threads/rank
 distrk:  each k-point on  512 cores,    1 groups
 distr:  one band on NCORE=  32 cores,   16 groups


--------------------------------------------------------------------------------------------------------


 INCAR:
   ENCUT = 500.000000
   SIGMA = 0.010000
   EDIFF = 1.00e-05
   ALGO = A
   ISMEAR = 0
   NELM = 2000
   NSW = 500
   NCORE = 32
   LCHARG = .FALSE.
   LWAVE = .FALSE.
   LREAL = Auto
   IBRION = 2
   EDIFFG = -0.05
   GGA = BF
   LUSE_VDW = .TRUE.
   ZAB_VDW = -1.8867
   LBEEFENS = .TRUE.
   DIPOL = 0.5 0.5 0.65
   IDIPOL = 3
   LDIPOL = .TRUE.

 POTCAR:    PAW_PBE Au 04Oct2007                  
 POTCAR:    PAW_PBE C 08Apr2002                   
 POTCAR:    PAW_PBE H 15Jun2001                   
 POTCAR:    PAW_PBE O 08Apr2002                   
 POTCAR:    PAW_PBE Sr_sv 07Sep2000               
 POTCAR:    PAW_PBE Ti_sv 26Sep2005               
 -----------------------------------------------------------------------------
|                                                                             |
|               ----> ADVICE to this user running VASP <----                  |
|                                                                             |
|     You have switched on vdW-DFT.                                           |
|     This routine was written and supplied by Jiri Klimes. We recommend      |
|     that you carefully read and cite the following publications:            |
|       J. Klimes, D.R. Bowler, A. Michelides                                 |
|          J. Phys.: Cond Matt. 22 022201 (2010)                              |
|       J. Klimes, D.R. Bowler, A. Michelides                                 |
|          Phys. Rev. B. 83, 195131 (2011)                                    |
|     and references therein.                                                 |
|                                                                             |
 -----------------------------------------------------------------------------

 POTCAR:    PAW_PBE Au 04Oct2007                  
   SHA256 =  d0044ae04e2bdce24051b198fc5c053d722a5bc6fe3c3b100514a13fc5d2db88 Au/POTCAR             
   COPYR  = (c) Copyright 04Oct2007 Georg Kresse                                                    
   COPYR  = This file is part of the software VASP. Any use, copying, and all other rights are regul
   COPYR  = If you do not have a valid VASP license, you may not use, copy or distribute this file. 
   VRHFIN =Au: s1d10                                                                                
   LEXCH  = PE                                                                                      
   EATOM  =   926.0867 eV,   68.0654 Ry                                                             
                                                                                                    
   TITEL  = PAW_PBE Au 04Oct2007                                                                    
   LULTRA =        F    use ultrasoft PP ?                                                          
   IUNSCR =        1    unscreen: 0-lin 1-nonlin 2-no                                               
   RPACOR =    2.330    partial core radius                                                         
   POMASS =  196.966; ZVAL   =   11.000    mass and valenz                                          
   RCORE  =    2.500    outmost cutoff radius                                                       
   RWIGS  =    2.840; RWIGS  =    1.503    wigner-seitz radius (au A)                               
   ENMAX  =  229.943; ENMIN  =  172.457 eV                                                          
   ICORE  =        3    local potential                                                             
   LCOR   =        T    correct aug charges                                                         
   LPAW   =        T    paw PP                                                                      
   EAUG   =  356.670                                                                                
   DEXC   =    0.000                                                                                
   RMAX   =    2.562    core radius for proj-oper                                                   
   RAUG   =    1.300    factor for augmentation sphere                                              
   RDEP   =    2.598    radius for radial grids                                                     
   RDEPT  =    2.193    core radius for aug-charge                                                  
                                                                                                    
   Atomic configuration                                                                             
   16 entries                                                                                       
     n  l   j            E        occ.                                                              
     1  0  0.50    -80748.5001   2.0000                                                             
     2  0  0.50    -14244.7466   2.0000                                                             
     2  1  1.50    -12310.9591   6.0000                                                             
     3  0  0.50     -3362.1768   2.0000                                                             
     3  1  1.50     -2801.5463   6.0000                                                             
     3  2  2.50     -2203.8206  10.0000                                                             
     4  0  0.50      -729.8168   2.0000                                                             
     4  1  1.50      -546.0527   6.0000                                                             
     4  2  2.50      -325.7302  10.0000                                                             
     4  3  3.50       -81.1472  14.0000                                                             
     5  0  0.50      -108.3201   2.0000                                                             
     5  1  1.50       -59.7479   6.0000                                                             
     5  2  2.50        -6.8783  10.0000                                                             
     6  0  0.50        -5.7602   1.0000                                                             
     6  1  1.50        -6.8029   0.0000                                                             
     5  3  2.50        -1.3606   0.0000                                                             
   Description                                                                                      
     l       E           TYP  RCUT    TYP  RCUT                                                     
     2     -6.8782861     23  2.500                                                                 
     2     -8.2388687     23  2.500                                                                 
     0     -5.7601759     23  2.500                                                                 
     0     -0.8493231     23  2.500                                                                 
     1     -2.7211652     23  2.500                                                                 
     1     27.2116520     23  2.500                                                                 
     3     -1.3605826     23  2.500                                                                 
  local pseudopotential read in
  partial core-charges read in
  partial kinetic energy density read in
  atomic valenz-charges read in
  non local Contribution for L=           2  read in
    real space projection operators read in
  non local Contribution for L=           2  read in
    real space projection operators read in
  non local Contribution for L=           0  read in
    real space projection operators read in
  non local Contribution for L=           0  read in
    real space projection operators read in
  non local Contribution for L=           1  read in
    real space projection operators read in
  non local Contribution for L=           1  read in
    real space projection operators read in
    PAW grid and wavefunctions read in
 
   number of l-projection  operators is LMAX  =           6
   number of lm-projection operators is LMMAX =          18
 
 POTCAR:    PAW_PBE C 08Apr2002                   
   SHA256 =  253f7b50bb8d59471dbedb8285d89021f4a42ed1a2c5d38a03a736e69125dd95 C/POTCAR              
   COPYR  = (c) Copyright 08Apr2002 Georg Kresse                                                    
   COPYR  = This file is part of the software VASP. Any use, copying, and all other rights are regul
   COPYR  = If you do not have a valid VASP license, you may not use, copy or distribute this file. 
   VRHFIN =C: s2p2                                                                                  
   LEXCH  = PE                                                                                      
   EATOM  =   147.1560 eV,   10.8157 Ry                                                             
                                                                                                    
   TITEL  = PAW_PBE C 08Apr2002                                                                     
   LULTRA =        F    use ultrasoft PP ?                                                          
   IUNSCR =        1    unscreen: 0-lin 1-nonlin 2-no                                               
   RPACOR =    1.200    partial core radius                                                         
   POMASS =   12.011; ZVAL   =    4.000    mass and valenz                                          
   RCORE  =    1.500    outmost cutoff radius                                                       
   RWIGS  =    1.630; RWIGS  =    0.863    wigner-seitz radius (au A)                               
   ENMAX  =  400.000; ENMIN  =  300.000 eV                                                          
   ICORE  =        2    local potential                                                             
   LCOR   =        T    correct aug charges                                                         
   LPAW   =        T    paw PP                                                                      
   EAUG   =  644.873                                                                                
   DEXC   =    0.000                                                                                
   RMAX   =    1.529    core radius for proj-oper                                                   
   RAUG   =    1.300    factor for augmentation sphere                                              
   RDEP   =    1.501    radius for radial grids                                                     
   RDEPT  =    1.300    core radius for aug-charge                                                  
                                                                                                    
   Atomic configuration                                                                             
    4 entries                                                                                       
     n  l   j            E        occ.                                                              
     1  0  0.50      -273.3789   2.0000                                                             
     2  0  0.50       -13.7508   2.0000                                                             
     2  1  0.50        -5.2854   2.0000                                                             
     3  2  1.50        -5.4423   0.0000                                                             
   Description                                                                                      
     l       E           TYP  RCUT    TYP  RCUT                                                     
     0    -13.7508458     23  1.200                                                                 
     0     -8.2022199     23  1.200                                                                 
     1     -5.2854383     23  1.500                                                                 
     1     34.0145650     23  1.500                                                                 
     2     -5.4423304      7  1.500                                                                 
  local pseudopotential read in
  partial core-charges read in
  partial kinetic energy density read in
  atomic valenz-charges read in
  non local Contribution for L=           0  read in
    real space projection operators read in
  non local Contribution for L=           0  read in
    real space projection operators read in
  non local Contribution for L=           1  read in
    real space projection operators read in
  non local Contribution for L=           1  read in
    real space projection operators read in
    PAW grid and wavefunctions read in
 
   number of l-projection  operators is LMAX  =           4
   number of lm-projection operators is LMMAX =           8
 
 POTCAR:    PAW_PBE H 15Jun2001                   
   SHA256 =  030f79b5d3ab3cf0e668861823c8fb652ff669f3e15e46930bd03bfd63a607b6 H/POTCAR              
   COPYR  = (c) Copyright 15Jun2001 Georg Kresse                                                    
   COPYR  = This file is part of the software VASP. Any use, copying, and all other rights are regul
   COPYR  = If you do not have a valid VASP license, you may not use, copy or distribute this file. 
   VRHFIN =H: ultrasoft test                                                                        
   LEXCH  = PE                                                                                      
   EATOM  =    12.4884 eV,    0.9179 Ry                                                             
                                                                                                    
   TITEL  = PAW_PBE H 15Jun2001                                                                     
   LULTRA =        F    use ultrasoft PP ?                                                          
   IUNSCR =        0    unscreen: 0-lin 1-nonlin 2-no                                               
   RPACOR =    0.000    partial core radius                                                         
   POMASS =    1.000; ZVAL   =    1.000    mass and valenz                                          
   RCORE  =    1.100    outmost cutoff radius                                                       
   RWIGS  =    0.700; RWIGS  =    0.370    wigner-seitz radius (au A)                               
   ENMAX  =  250.000; ENMIN  =  200.000 eV                                                          
   RCLOC  =    0.701    cutoff for local pot                                                        
   LCOR   =        T    correct aug charges                                                         
   LPAW   =        T    paw PP                                                                      
   EAUG   =  400.000                                                                                
   RMAX   =    1.123    core radius for proj-oper                                                   
   RAUG   =    1.200    factor for augmentation sphere                                              
   RDEP   =    1.112    radius for radial grids                                                     
   RDEPT  =    0.926    core radius for aug-charge                                                  
                                                                                                    
   Atomic configuration                                                                             
    2 entries                                                                                       
     n  l   j            E        occ.                                                              
     1  0  0.50        -6.4927   1.0000                                                             
     2  1  0.50        -3.4015   0.0000                                                             
   Description                                                                                      
     l       E           TYP  RCUT    TYP  RCUT                                                     
     0     -6.4927494     23  1.100                                                                 
     0      6.8029130     23  1.100                                                                 
     1     -4.0817478     23  1.100                                                                 
  local pseudopotential read in
  atomic valenz-charges read in
  non local Contribution for L=           0  read in
    real space projection operators read in
  non local Contribution for L=           0  read in
    real space projection operators read in
  non local Contribution for L=           1  read in
    real space projection operators read in
    PAW grid and wavefunctions read in
 
   number of l-projection  operators is LMAX  =           3
   number of lm-projection operators is LMMAX =           5
 
 POTCAR:    PAW_PBE O 08Apr2002                   
   SHA256 =  818f92134a0a090dccd8ba1447fa70422a3b330e708bb4f08108d8ae51209ddf O/POTCAR              
   COPYR  = (c) Copyright 08Apr2002 Georg Kresse                                                    
   COPYR  = This file is part of the software VASP. Any use, copying, and all other rights are regul
   COPYR  = If you do not have a valid VASP license, you may not use, copy or distribute this file. 
   VRHFIN =O: s2p4                                                                                  
   LEXCH  = PE                                                                                      
   EATOM  =   432.3788 eV,   31.7789 Ry                                                             
                                                                                                    
   TITEL  = PAW_PBE O 08Apr2002                                                                     
   LULTRA =        F    use ultrasoft PP ?                                                          
   IUNSCR =        1    unscreen: 0-lin 1-nonlin 2-no                                               
   RPACOR =    1.200    partial core radius                                                         
   POMASS =   16.000; ZVAL   =    6.000    mass and valenz                                          
   RCORE  =    1.520    outmost cutoff radius                                                       
   RWIGS  =    1.550; RWIGS  =    0.820    wigner-seitz radius (au A)                               
   ENMAX  =  400.000; ENMIN  =  300.000 eV                                                          
   ICORE  =        2    local potential                                                             
   LCOR   =        T    correct aug charges                                                         
   LPAW   =        T    paw PP                                                                      
   EAUG   =  605.392                                                                                
   DEXC   =    0.000                                                                                
   RMAX   =    1.553    core radius for proj-oper                                                   
   RAUG   =    1.300    factor for augmentation sphere                                              
   RDEP   =    1.550    radius for radial grids                                                     
   RDEPT  =    1.329    core radius for aug-charge                                                  
                                                                                                    
   Atomic configuration                                                                             
    4 entries                                                                                       
     n  l   j            E        occ.                                                              
     1  0  0.50      -514.6923   2.0000                                                             
     2  0  0.50       -23.9615   2.0000                                                             
     2  1  0.50        -9.0305   4.0000                                                             
     3  2  1.50        -9.5241   0.0000                                                             
   Description                                                                                      
     l       E           TYP  RCUT    TYP  RCUT                                                     
     0    -23.9615318     23  1.200                                                                 
     0     -9.5240782     23  1.200                                                                 
     1     -9.0304911     23  1.520                                                                 
     1      8.1634956     23  1.520                                                                 
     2     -9.5240782      7  1.500                                                                 
  local pseudopotential read in
  partial core-charges read in
  partial kinetic energy density read in
  kinetic energy density of atom read in
  atomic valenz-charges read in
  non local Contribution for L=           0  read in
    real space projection operators read in
  non local Contribution for L=           0  read in
    real space projection operators read in
  non local Contribution for L=           1  read in
    real space projection operators read in
  non local Contribution for L=           1  read in
    real space projection operators read in
    PAW grid and wavefunctions read in
 
   number of l-projection  operators is LMAX  =           4
   number of lm-projection operators is LMMAX =           8
 
 POTCAR:    PAW_PBE Sr_sv 07Sep2000               
   SHA256 =  a8389d3481648516ee67182ee030b298d280b37e29cbbf2d8595f040d757c710 Sr_sv/POTCAR          
   COPYR  = (c) Copyright 07Sep2000 Georg Kresse                                                    
   COPYR  = This file is part of the software VASP. Any use, copying, and all other rights are regul
   COPYR  = If you do not have a valid VASP license, you may not use, copy or distribute this file. 
   VRHFIN =Sr: 4s4p5s                                                                               
   LEXCH  = PE                                                                                      
   EATOM  =   843.0319 eV,   61.9611 Ry                                                             
                                                                                                    
   TITEL  = PAW_PBE Sr_sv 07Sep2000                                                                 
   LULTRA =        F    use ultrasoft PP ?                                                          
   IUNSCR =        1    unscreen: 0-lin 1-nonlin 2-no                                               
   RPACOR =    2.200    partial core radius                                                         
   POMASS =   87.620; ZVAL   =   10.000    mass and valenz                                          
   RCORE  =    2.500    outmost cutoff radius                                                       
   RWIGS  =    4.040; RWIGS  =    2.138    wigner-seitz radius (au A)                               
   ENMAX  =  229.353; ENMIN  =  172.014 eV                                                          
   RCLOC  =    2.201    cutoff for local pot                                                        
   LCOR   =        T    correct aug charges                                                         
   LPAW   =        T    paw PP                                                                      
   EAUG   =  366.804                                                                                
   DEXC   =    0.000                                                                                
   RMAX   =    2.547    core radius for proj-oper                                                   
   RAUG   =    1.300    factor for augmentation sphere                                              
   RDEP   =    2.562    radius for radial grids                                                     
   RDEPT  =    2.128    core radius for aug-charge                                                  
                                                                                                    
   Atomic configuration                                                                             
   10 entries                                                                                       
     n  l   j            E        occ.                                                              
     1  0  0.50    -15934.8930   2.0000                                                             
     2  0  0.50     -2157.6250   2.0000                                                             
     2  1  1.50     -1917.0034   6.0000                                                             
     3  0  0.50      -333.7288   2.0000                                                             
     3  1  1.50      -256.0992   6.0000                                                             
     3  2  2.50      -127.9971  10.0000                                                             
     4  0  0.50       -40.8953   2.0000                                                             
     5  0  0.50        -3.5257   1.9990                                                             
     4  1  1.50       -22.8179   6.0000                                                             
     4  2  1.50        -1.2815   0.0010                                                             
   Description                                                                                      
     l       E           TYP  RCUT    TYP  RCUT                                                     
     0    -40.8953213     23  2.480                                                                 
     0     -3.5257161     23  2.480                                                                 
     1    -22.8178632     23  2.500                                                                 
     1    -24.1784458     23  2.500                                                                 
     2     -1.2814598     23  2.500                                                                 
     2      0.2279365     23  2.500                                                                 
  local pseudopotential read in
  partial core-charges read in
  partial kinetic energy density read in
  atomic valenz-charges read in
  non local Contribution for L=           0  read in
    real space projection operators read in
  non local Contribution for L=           0  read in
    real space projection operators read in
  non local Contribution for L=           1  read in
    real space projection operators read in
  non local Contribution for L=           1  read in
    real space projection operators read in
  non local Contribution for L=           2  read in
    real space projection operators read in
  non local Contribution for L=           2  read in
    real space projection operators read in
    PAW grid and wavefunctions read in
 
   number of l-projection  operators is LMAX  =           6
   number of lm-projection operators is LMMAX =          18
 
 POTCAR:    PAW_PBE Ti_sv 26Sep2005               
   SHA256 =  4d747badb5a5ea28d858fbac70885b3f8929d6fd9e5b0dbe1ecb9878dc164da1 Ti_sv/POTCAR          
   COPYR  = (c) Copyright 26Sep2005 Georg Kresse                                                    
   COPYR  = This file is part of the software VASP. Any use, copying, and all other rights are regul
   COPYR  = If you do not have a valid VASP license, you may not use, copy or distribute this file. 
   VRHFIN =Ti: 3p4s3d                                                                               
   LEXCH  = PE                                                                                      
   EATOM  =  1588.0892 eV,  116.7213 Ry                                                             
                                                                                                    
   TITEL  = PAW_PBE Ti_sv 26Sep2005                                                                 
   LULTRA =        F    use ultrasoft PP ?                                                          
   IUNSCR =        1    unscreen: 0-lin 1-nonlin 2-no                                               
   RPACOR =    2.000    partial core radius                                                         
   POMASS =   47.880; ZVAL   =   12.000    mass and valenz                                          
   RCORE  =    2.300    outmost cutoff radius                                                       
   RWIGS  =    2.300; RWIGS  =    1.217    wigner-seitz radius (au A)                               
   ENMAX  =  274.610; ENMIN  =  205.957 eV                                                          
   ICORE  =        3    local potential                                                             
   LCOR   =        T    correct aug charges                                                         
   LPAW   =        T    paw PP                                                                      
   EAUG   =  482.848                                                                                
   RMAX   =    2.348    core radius for proj-oper                                                   
   RAUG   =    1.300    factor for augmentation sphere                                              
   RDEP   =    2.381    radius for radial grids                                                     
   RDEPT  =    1.930    core radius for aug-charge                                                  
                                                                                                    
   Atomic configuration                                                                             
    8 entries                                                                                       
     n  l   j            E        occ.                                                              
     1  0  0.50     -4865.3608   2.0000                                                             
     2  0  0.50      -533.1368   2.0000                                                             
     2  1  1.50      -440.5031   6.0000                                                             
     3  0  0.50       -59.3186   2.0000                                                             
     4  0  0.50        -3.7291   1.0000                                                             
     3  1  1.50       -35.7012   6.0000                                                             
     3  2  2.50        -1.9157   3.0000                                                             
     4  3  2.50        -1.3606   0.0000                                                             
   Description                                                                                      
     l       E           TYP  RCUT    TYP  RCUT                                                     
     0    -59.3185931     23  1.800                                                                 
     0     -3.7290822     23  2.300                                                                 
     1    -35.7012045     23  2.300                                                                 
     1     -1.3605826     23  2.300                                                                 
     2     -1.9156920     23  2.300                                                                 
     2     -0.0236318     23  2.300                                                                 
     3     -1.3605826     23  2.300                                                                 
  local pseudopotential read in
  partial core-charges read in
  partial kinetic energy density read in
  atomic valenz-charges read in
  non local Contribution for L=           0  read in
    real space projection operators read in
  non local Contribution for L=           0  read in
    real space projection operators read in
  non local Contribution for L=           1  read in
    real space projection operators read in
  non local Contribution for L=           1  read in
    real space projection operators read in
  non local Contribution for L=           2  read in
    real space projection operators read in
  non local Contribution for L=           2  read in
    real space projection operators read in
    PAW grid and wavefunctions read in
 
   number of l-projection  operators is LMAX  =           6
   number of lm-projection operators is LMMAX =          18
 
 Optimization of the real space projectors (new method)

 maximal supplied QI-value         = 15.12
 optimisation between [QCUT,QGAM] = [ 11.34, 22.83] = [ 36.00,145.93] Ry 
 Optimized for a Real-space Cutoff    1.39 Angstroem

   l    n(q)    QCUT    max X(q) W(low)/X(q) W(high)/X(q)  e(spline) 
   2      9    11.338    60.898    0.39E-03    0.42E-03    0.21E-06
   2      9    11.338    58.894    0.40E-03    0.42E-03    0.22E-06
   0      9    11.338   109.617    0.13E-03    0.20E-04    0.13E-06
   0      9    11.338    75.026    0.13E-03    0.20E-04    0.13E-06
   1      9    11.338    16.344    0.33E-04    0.24E-03    0.18E-06
   1      9    11.338    10.160    0.26E-04    0.19E-03    0.15E-06
 Optimization of the real space projectors (new method)

 maximal supplied QI-value         = 25.13
 optimisation between [QCUT,QGAM] = [ 11.31, 22.87] = [ 35.82,146.48] Ry 
 Optimized for a Real-space Cutoff    1.00 Angstroem

   l    n(q)    QCUT    max X(q) W(low)/X(q) W(high)/X(q)  e(spline) 
   0      7    11.310   115.676    0.43E-03    0.13E-02    0.19E-06
   0      7    11.310    87.132    0.43E-03    0.13E-02    0.18E-06
   1      6    11.310     4.429    0.42E-03    0.74E-03    0.11E-06
   1      6    11.310     2.733    0.34E-03    0.55E-03    0.92E-07
 Optimization of the real space projectors (new method)

 maximal supplied QI-value         = 34.20
 optimisation between [QCUT,QGAM] = [ 11.29, 22.57] = [ 35.68,142.71] Ry 
 Optimized for a Real-space Cutoff    1.16 Angstroem

   l    n(q)    QCUT    max X(q) W(low)/X(q) W(high)/X(q)  e(spline) 
   0      8    11.287    19.460    0.40E-03    0.73E-03    0.16E-06
   0      8    11.287    12.209    0.38E-03    0.70E-03    0.15E-06
   1      7    11.287     4.655    0.22E-03    0.25E-04    0.22E-06
 Optimization of the real space projectors (new method)

 maximal supplied QI-value         = 24.76
 optimisation between [QCUT,QGAM] = [ 11.39, 22.77] = [ 36.31,145.25] Ry 
 Optimized for a Real-space Cutoff    1.00 Angstroem

   l    n(q)    QCUT    max X(q) W(low)/X(q) W(high)/X(q)  e(spline) 
   0      7    11.387    20.381    0.39E-03    0.13E-02    0.15E-06
   0      7    11.387    15.268    0.42E-03    0.14E-02    0.17E-06
   1      6    11.387     5.964    0.41E-03    0.11E-02    0.17E-06
   1      6    11.387     5.382    0.39E-03    0.87E-03    0.15E-06
 Optimization of the real space projectors (new method)

 maximal supplied QI-value         = 15.12
 optimisation between [QCUT,QGAM] = [ 11.34, 22.83] = [ 36.00,145.93] Ry 
 Optimized for a Real-space Cutoff    1.56 Angstroem

   l    n(q)    QCUT    max X(q) W(low)/X(q) W(high)/X(q)  e(spline) 
   0     11    11.338    11.565    0.26E-04    0.80E-05    0.70E-07
   0     11    11.338    10.214    0.41E-04    0.15E-04    0.15E-06
   1     10    11.338   189.983    0.18E-03    0.52E-04    0.42E-06
   1     10    11.338   193.105    0.19E-03    0.52E-04    0.42E-06
   2     10    11.338   115.941    0.22E-03    0.42E-03    0.43E-06
   2     10    11.338    76.444    0.21E-03    0.41E-03    0.42E-06
 Optimization of the real space projectors (new method)

 maximal supplied QI-value         = 16.25
 optimisation between [QCUT,QGAM] = [ 11.38, 22.75] = [ 36.24,144.96] Ry 
 Optimized for a Real-space Cutoff    1.27 Angstroem

   l    n(q)    QCUT    max X(q) W(low)/X(q) W(high)/X(q)  e(spline) 
   0      9    11.376    12.277    0.53E-04    0.25E-04    0.25E-07
   0      9    11.376    11.419    0.89E-04    0.67E-05    0.35E-07
   1      8    11.376     4.010    0.13E-03    0.11E-03    0.29E-07
   1      8    11.376     6.182    0.94E-04    0.19E-03    0.11E-06
   2      8    11.376    47.177    0.13E-03    0.88E-03    0.24E-06
   2      8    11.376    42.437    0.13E-03    0.86E-03    0.23E-06
 -----------------------------------------------------------------------------
|                                                                             |
|               ----> ADVICE to this user running VASP <----                  |
|                                                                             |
|     You enforced a specific xc type in the INCAR file but a different       |
|     type was found in the POTCAR file.                                      |
|     I HOPE YOU KNOW WHAT YOU ARE DOING!                                     |
|                                                                             |
 -----------------------------------------------------------------------------

  PAW_PBE Au 04Oct2007                  :
 energy of atom  1       EATOM= -926.0867
 kinetic energy error for atom=    0.0042 (will be added to EATOM!!)
  PAW_PBE C 08Apr2002                   :
 energy of atom  2       EATOM= -147.1560
 kinetic energy error for atom=    0.0076 (will be added to EATOM!!)
  PAW_PBE H 15Jun2001                   :
 energy of atom  3       EATOM=  -12.4884
 kinetic energy error for atom=    0.0020 (will be added to EATOM!!)
  PAW_PBE O 08Apr2002                   :
 energy of atom  4       EATOM= -432.3788
 kinetic energy error for atom=    0.0224 (will be added to EATOM!!)
  PAW_PBE Sr_sv 07Sep2000               :
 energy of atom  5       EATOM= -843.0319
 kinetic energy error for atom=    0.0012 (will be added to EATOM!!)
  PAW_PBE Ti_sv 26Sep2005               :
 energy of atom  6       EATOM=-1588.0892
 kinetic energy error for atom=    0.0046 (will be added to EATOM!!)
 
 
 POSCAR: Au  C  H  O Sr Ti
  positions in direct lattice
  velocities in cartesian coordinates
 exchange correlation table for  LEXCH =       17
   RHO(1)=    0.500       N(1)  =     2000
   RHO(2)=  100.500       N(2)  =     4000

 VTST: version 4.1, (05/19/21)

 CHAIN: initializing optimizer
 
 OPT: Using VASP Conjugate-Gradient optimizer
 CHAIN: Read ICHAIN            0
 
 POSCAR: Au  C  H  O Sr Ti
  positions in direct lattice
  velocities in cartesian coordinates
 


--------------------------------------------------------------------------------------------------------


 ion  position               nearest neighbor table
   1  0.715  0.525  0.753-  43 2.71  46 2.72  27 2.80  15 2.84  29 2.86  16 2.96  22 2.97
   2  0.368  0.620  0.820-  34 2.76  21 2.78  11 2.83  50 2.85  25 2.90  20 2.96
   3  0.569  0.511  0.857-   5 2.80  46 2.83  17 2.89  22 2.89  21 2.90  37 2.90  42 2.90  32 3.44

   4  0.677  0.213  0.763-  52 2.02  30 2.65  35 2.75  14 2.94  38 3.34  12 3.38
   5  0.468  0.453  0.882-  21 2.77  42 2.78   3 2.80  45 2.81  11 2.81
   6  0.518  0.377  0.733-  37 2.80  28 2.82  19 2.87  36 2.91  12 2.92  42 3.00  35 3.05   9 3.14
                            45 3.31 345 4.16
   7  0.281  0.341  0.702- 174 2.06  48 2.77  13 2.81   9 2.92  33 3.05 368 3.53 342 4.05
   8  0.669  0.681  0.749-  23 2.63  43 2.67  39 2.73  46 2.78  29 3.03  44 3.08  18 3.38
   9  0.397  0.383  0.691- 129 2.03 179 2.13  48 2.78  47 2.88   7 2.92  13 3.02  19 3.03   6 3.14
                           368 3.39  49 3.58  36 3.60 345 3.80
  10  0.452  0.580  0.703- 148 2.11  32 2.69  36 2.69  24 2.73  18 2.86  19 2.87  47 3.02 351 3.63

  11  0.375  0.494  0.833-  25 2.81   5 2.81   2 2.83  13 2.84  19 2.85  21 2.91  45 2.99
  12  0.618  0.319  0.697- 156 2.03  14 2.75  35 2.80  38 2.82  30 2.90  16 2.90   6 2.92   4 3.38
                           348 3.55 345 4.27
  13  0.324  0.416  0.770-   7 2.81  48 2.81  11 2.84  25 2.88  47 2.93  33 2.95  45 2.97   9 3.02
                            19 3.13
  14  0.700  0.343  0.759-  12 2.75  15 2.78  30 2.81  35 2.83  22 2.94  27 2.94   4 2.94  16 3.24

  15  0.773  0.429  0.795-  27 2.71  14 2.78   1 2.84  22 2.88
  16  0.648  0.445  0.694- 171 2.15  27 2.75  29 2.90  12 2.90   1 2.96  37 3.01  14 3.24  36 3.33
                           348 3.49  22 3.57
  17  0.565  0.641  0.862-  46 2.77  39 2.80  21 2.83  50 2.85   3 2.89  32 2.95
  18  0.540  0.668  0.702- 172 2.11  32 2.75  10 2.86  29 2.88  44 2.95  24 2.98  39 3.18  41 3.19
                             8 3.38 351 3.48
  19  0.443  0.474  0.756-  37 2.85  11 2.85  10 2.87   6 2.87  36 2.89  47 2.90  45 2.91   9 3.03
                            13 3.13  32 3.38
  20  0.374  0.740  0.779-  34 2.76  24 2.76  50 2.80  40 2.81  41 2.86   2 2.96  31 3.11
  21  0.462  0.575  0.864-   5 2.77   2 2.78  17 2.83  50 2.89   3 2.90  11 2.91  32 2.94
  22  0.654  0.441  0.813-  37 2.84  15 2.88  42 2.88   3 2.89  14 2.94   1 2.97  46 3.27  16 3.57

  23  0.707  0.757  0.688- 120 2.04 159 2.06   8 2.63  44 2.78 392 3.13  43 3.24 341 3.82 340 4.19

  24  0.418  0.697  0.699- 181 2.03  10 2.73  20 2.76  40 2.78  41 2.93  18 2.98  31 3.14 336 4.04
                           351 4.09
  25  0.289  0.539  0.778-  34 2.80  11 2.81  33 2.81  26 2.87  13 2.88   2 2.90  47 2.91
  26  0.257  0.593  0.695- 158 2.03 142 2.11  34 2.69  33 2.83  25 2.87  47 3.01  31 3.53 336 3.57
                           344 3.69
  27  0.762  0.430  0.705- 150 2.01  15 2.71  16 2.75   1 2.80  14 2.94 321 3.76 348 4.19
  28  0.482  0.271  0.775-  49 2.74  35 2.77   6 2.82  48 2.82  38 2.84  45 2.92  42 3.45
  29  0.621  0.571  0.704- 157 2.09  43 2.84   1 2.86  18 2.88  16 2.90  46 2.92  37 2.92   8 3.03
                            36 3.27  32 3.46 340 3.70
  30  0.727  0.260  0.692- 121 2.00 137 2.04   4 2.65  14 2.81  12 2.90 431 3.08 348 4.11 329 4.14

  31  0.294  0.747  0.697- 160 2.06 142 2.06  34 2.77  40 2.82  20 3.11  24 3.14  26 3.53 347 4.19
                           336 4.21
  32  0.512  0.603  0.777-  10 2.69  18 2.75  50 2.84  37 2.91  21 2.94  17 2.95  46 3.01  39 3.19
                            19 3.38   3 3.44  29 3.46
  33  0.240  0.470  0.709- 143 2.11  47 2.69  25 2.81  26 2.83  13 2.95   7 3.05 342 4.17
  34  0.285  0.663  0.765-  26 2.69   2 2.76  20 2.76  31 2.77  25 2.80
  35  0.596  0.295  0.786-   4 2.75  42 2.75  28 2.77  12 2.80  14 2.83   6 3.05  38 3.05
  36  0.514  0.484  0.678- 171 2.11  73 2.16  10 2.69  37 2.78  19 2.89   6 2.91 436 3.14  29 3.27
                            16 3.33 345 3.55   9 3.60 351 4.04
  37  0.563  0.486  0.762-  36 2.78   6 2.80  22 2.84  19 2.85   3 2.90  32 2.91  29 2.92  46 2.99
                            16 3.01  42 3.02
  38  0.552  0.215  0.711- 141 2.12  49 2.81  12 2.82  28 2.84  35 3.05   4 3.34 337 3.94
  39  0.578  0.726  0.794-   8 2.73  41 2.73  44 2.79  17 2.80  50 2.99  18 3.18  32 3.19  46 3.43

  40  0.391  0.818  0.706- 166 2.07  24 2.78  20 2.81  41 2.82  31 2.82 347 3.65 354 4.11
  41  0.486  0.777  0.755-  39 2.73  40 2.82  20 2.86  44 2.91  24 2.93  50 2.93  18 3.19
  42  0.545  0.389  0.831-  35 2.75   5 2.78  45 2.85  22 2.88   3 2.90   6 3.00  37 3.02  28 3.45

  43  0.733  0.615  0.694- 149 2.09 159 2.11   8 2.67   1 2.71  29 2.84  23 3.24 340 3.41 327 3.71

  44  0.596  0.785  0.713- 180 2.09  23 2.78  39 2.79  41 2.91  18 2.95   8 3.08 341 4.17 354 4.35

  45  0.427  0.374  0.817-   5 2.81  48 2.82  42 2.85  19 2.91  28 2.92  13 2.97  11 2.99   6 3.31

  46  0.634  0.584  0.800-   1 2.72  17 2.77   8 2.78   3 2.83  29 2.92  37 2.99  32 3.01  22 3.27
                            39 3.43
  47  0.349  0.501  0.698- 148 2.11  33 2.69   9 2.88  19 2.90  25 2.91  13 2.93  26 3.01  10 3.02
                           336 4.16 368 4.28
  48  0.368  0.300  0.756-   7 2.77   9 2.78  13 2.81  45 2.82  28 2.82  49 2.86
  49  0.436  0.228  0.698- 128 2.01 179 2.14  28 2.74  38 2.81  48 2.86   9 3.58 337 3.91 326 4.29

  50  0.464  0.696  0.830-  20 2.80  32 2.84  17 2.85   2 2.85  21 2.89  41 2.93  39 2.99
  51  0.748  0.120  0.798- 252 1.18  52 1.32
  52  0.715  0.132  0.763-  53 1.08  51 1.32   4 2.02
  53  0.713  0.103  0.734-  52 1.08
  54  0.577  0.436  0.552- 436 1.94 417 2.06 345 2.62 357 2.77 348 2.91 372 3.03
  55  0.085  0.813  0.547- 455 1.85 460 2.17 363 2.67 388 2.73 346 3.17 332 3.36
  56  0.417  0.065  0.547- 452 1.84 429 2.26 359 2.74 376 2.77 337 2.96 326 3.07
  57  0.081  0.564  0.546- 442 1.84 427 2.23 356 2.68 323 2.77 344 2.86 334 3.30
  58  0.416  0.320  0.553- 435 1.96 423 1.97 345 2.66 368 2.73 389 2.98 360 2.98
  59  0.583  0.062  0.545- 399 1.84 438 2.22 376 2.68 364 2.69 337 3.01 329 3.11
  60  0.581  0.560  0.549- 436 1.88 424 2.09 351 2.70 357 2.74 340 2.83 372 2.86
  61  0.747  0.311  0.548- 431 1.94 446 2.00 348 2.65 358 2.72 370 2.87 321 3.05
  62  0.586  0.814  0.550- 401 1.92 441 2.06 366 2.75 365 2.81 341 2.95 354 3.03
  63  0.501  0.757  0.593- 454 1.99 441 2.01 365 2.66 354 2.73 351 2.94
  64  0.583  0.937  0.454- 415 2.00 401 2.06 325 2.79 349 2.81 376 2.84 364 2.86
  65  0.253  0.559  0.544- 450 1.91 428 2.04 361 2.63 323 2.79 336 2.87 344 3.19
  66  0.082  0.063  0.548- 443 1.84 461 2.22 386 2.70 374 2.71 369 3.19 343 3.30
  67  0.749  0.934  0.548- 425 1.82 439 2.28 364 2.77 380 2.79 341 2.92 322 3.15
  68  0.584  0.938  0.546- 401 1.84 438 2.25 364 2.68 376 2.70 341 2.95 354 3.05
  69  0.917  0.189  0.545- 402 1.85 458 2.18 370 2.67 387 2.67 338 3.25 369 3.33
  70  0.915  0.437  0.546- 397 1.85 405 2.23 355 2.67 356 2.70 321 2.90 339 3.42
  71  0.580  0.686  0.547- 424 1.92 441 2.12 351 2.65 365 2.71 340 2.82 366 2.85
  72  0.252  0.937  0.545- 406 1.83 432 2.22 359 2.68 374 2.73 347 2.92 346 3.29
  73  0.497  0.504  0.609- 459 2.10  36 2.16 436 2.25 351 2.73 345 3.00 357 3.27
  74  0.918  0.564  0.547- 457 1.85 405 2.22 356 2.69 355 2.74 327 2.89 334 3.30
  75  0.420  0.565  0.555- 459 1.90 453 2.13 351 2.66 336 2.71 357 2.92 361 3.04
  76  0.916  0.813  0.547- 456 1.84 462 2.17 320 2.67 388 2.71 322 3.25 332 3.34
  77  0.084  0.938  0.546- 455 1.84 461 2.19 374 2.67 386 2.69 346 3.25 332 3.39
  78  0.249  0.683  0.552- 434 1.96 450 1.97 336 2.73 344 2.87 363 2.90 375 2.93
  79  0.752  0.680  0.553- 392 1.96 400 1.97 340 2.64 327 2.83 320 2.98 366 3.02
  80  0.916  0.939  0.546- 456 1.84 437 2.20 380 2.65 386 2.70 322 3.24 332 3.36
  81  0.253  0.813  0.551- 434 1.82 406 2.07 375 2.77 363 2.88 347 2.89 346 3.19
  82  0.914  0.689  0.546- 457 1.85 462 2.24 320 2.66 388 2.72 327 2.85 334 3.43
  83  0.583  0.311  0.546- 417 1.90 433 2.11 389 2.73 358 2.75 345 2.78 348 2.85
  84  1.000  0.499  0.594- 405 1.95 427 1.96 356 2.62 339 2.91 334 2.93
  85  0.423  0.444  0.546- 459 1.88 423 2.06 357 2.62 361 2.84 345 2.88 368 3.11
  86  0.416  0.191  0.547- 435 1.85 452 2.04 389 2.72 360 2.73 337 3.10 326 3.24
  87  0.086  0.689  0.545- 442 1.86 460 2.24 363 2.64 388 2.72 344 2.79 334 3.45
  88  0.083  0.439  0.545- 449 1.84 427 2.21 356 2.65 323 2.67 342 3.07 339 3.42
  89  0.084  0.189  0.546- 443 1.85 440 2.19 377 2.64 387 2.66 369 3.31 343 3.38
  90  0.499  0.126  0.499- 452 1.98 399 1.99 389 2.73 324 2.76 376 2.83 337 3.24
  91  0.418  0.065  0.640- 429 1.80 326 2.51 337 2.54
  92  0.580  0.185  0.551- 399 1.94 433 1.99 389 2.74 358 2.88 337 2.89 329 3.02
  93  1.000  0.754  0.593- 460 1.96 462 1.96 388 2.58 332 2.86 334 3.06
  94  0.334  1.000  0.592- 429 2.00 432 2.03 359 2.59 347 2.72 326 2.75
  95  1.000  0.999  0.593- 437 2.00 461 2.01 386 2.59 369 2.87 332 2.91
  96  0.001  0.250  0.592- 458 1.94 440 1.99 387 2.58 339 2.96 369 2.97
  97  0.333  0.496  0.591- 459 1.85 428 2.15 361 2.70 368 2.75 336 2.87
  98  0.335  0.741  0.590- 454 1.94 434 2.04 336 2.60 375 2.68 347 3.09
  99  0.663  0.247  0.591- 433 1.87 431 2.16 358 2.65 329 2.77 348 2.81
 100  0.666  0.001  0.592- 438 2.01 439 2.01 364 2.59 341 2.70 329 2.83
 101  0.666  0.741  0.591- 441 1.94 392 2.06 340 2.57 366 2.67 341 3.17
 102  0.667  0.495  0.591- 436 1.82 448 2.13 372 2.72 348 2.73 340 2.94
 103  0.168  0.998  0.592- 432 1.98 461 2.01 374 2.57 346 2.89 343 2.92
 104  0.168  0.248  0.593- 430 1.94 440 2.03 377 2.61 342 2.78 343 2.93
 105  0.171  0.750  0.595- 434 1.87 460 2.14 363 2.75 344 2.76 346 2.84
 106  0.248  0.436  0.549- 428 1.94 444 1.98 368 2.65 361 2.82 323 2.84 342 3.03
 107  0.165  0.503  0.587- 428 1.83 427 2.05 323 2.56 344 2.81 342 3.01
 108  0.335  0.255  0.593- 435 1.91 430 2.05 368 2.66 360 2.70 326 3.07
 109  0.500  0.000  0.591- 429 2.00 438 2.00 376 2.57 337 2.77 354 2.81
 110  0.833  0.874  0.499- 425 1.95 456 2.02 320 2.74 384 2.75 380 2.82
 111  0.748  0.937  0.640- 439 1.80 322 2.48 341 2.53
 112  0.832  0.002  0.592- 439 1.99 437 2.03 380 2.57 338 2.82 322 2.91
 113  0.748  0.183  0.551- 431 1.90 445 1.96 358 2.81 370 2.93 329 2.96 338 3.12
 114  0.423  0.688  0.547- 453 1.95 454 2.00 365 2.68 351 2.76 375 2.88 336 2.92
 115  0.752  0.434  0.549- 446 1.93 448 2.05 348 2.72 355 2.83 372 2.86 321 2.93
 116  0.083  0.312  0.361- 391 1.97 367 2.79 352 2.79
 117  0.168  0.873  0.500- 406 1.93 455 2.02 363 2.72 319 2.79 374 2.86 346 3.54
 118  0.916  0.062  0.641- 437 1.80 338 2.49 369 2.50
 119  0.417  0.935  0.640- 429 1.80 354 2.53 347 2.58
 120  0.741  0.810  0.640- 392 1.98  23 2.04 341 2.59 322 2.69
 121  0.747  0.312  0.640-  30 2.00 431 2.04 348 2.66 321 2.77
 122  0.748  0.068  0.639- 439 1.81 329 2.48 338 2.50
 123  0.084  0.311  0.641- 440 1.80 339 2.49 342 2.51
 124  0.666  0.875  0.499- 401 1.97 425 2.00 366 2.74 349 2.76 364 2.81 341 3.26
 125  0.086  0.563  0.640- 427 1.79 334 2.50 344 2.53
 126  0.087  0.437  0.640- 427 1.79 342 2.51 339 2.52
 127  0.084  0.185  0.641- 440 1.79 369 2.50 343 2.50
 128  0.417  0.188  0.640- 435 1.99  49 2.01 337 2.63 326 2.66
 129  0.415  0.419  0.630-   9 2.03 459 2.08 345 2.54 368 2.59
 130  0.084  0.936  0.641- 461 1.80 346 2.48 332 2.49
 131  0.083  0.687  0.639- 460 1.79 334 2.47 344 2.51
 132  0.084  0.060  0.642- 461 1.80 343 2.50 369 2.51
 133  0.833  0.502  0.589- 448 1.83 405 2.06 355 2.59 327 2.83 321 2.92
 134  0.912  0.436  0.640- 405 1.80 321 2.52 339 2.53
 135  0.830  0.751  0.593- 392 1.86 462 2.10 320 2.71 327 2.79 322 2.91
 136  0.832  0.249  0.590- 431 1.83 458 2.12 370 2.64 321 2.80 338 2.89
 137  0.747  0.195  0.647- 431 2.02  30 2.04 329 2.72 338 2.75
 138  0.917  0.812  0.361- 398 1.97 373 2.79 384 2.79
 139  0.582  0.936  0.639- 438 1.80 354 2.50 341 2.51
 140  0.084  0.813  0.642- 460 1.79 346 2.48 332 2.52
 141  0.580  0.193  0.646- 433 1.91  38 2.12 337 2.71 329 2.74
 142  0.255  0.678  0.663-  31 2.06  26 2.11 336 3.02 344 3.11
 143  0.240  0.442  0.642- 428 1.89  33 2.11 342 2.62 368 2.94
 144  0.914  0.937  0.641- 437 1.80 322 2.47 332 2.50
 145  0.916  0.688  0.639- 462 1.80 334 2.48 327 2.50
 146  0.252  0.930  0.637- 432 1.81 346 2.46 347 2.49
 147  0.254  0.187  0.641- 430 1.74 326 2.52 343 2.54
 148  0.397  0.551  0.652-  10 2.11  47 2.11 459 2.16 336 2.81 351 3.48
 149  0.753  0.568  0.636- 448 1.91  43 2.09 327 2.61 340 2.74
 150  0.754  0.433  0.638-  27 2.01 448 2.02 321 2.62 348 2.75
 151  0.500  0.873  0.501- 407 1.98 401 1.99 365 2.68 325 2.82 376 2.82 354 3.27
 152  0.914  0.563  0.641- 405 1.79 334 2.49 327 2.52
 153  0.915  0.312  0.640- 458 1.80 339 2.50 321 2.53
 154  0.913  0.813  0.642- 462 1.79 322 2.50 332 2.51
 155  0.583  0.067  0.639- 438 1.79 329 2.50 337 2.50
 156  0.585  0.321  0.634- 433 1.97  12 2.03 345 2.54 348 2.64
 157  0.591  0.566  0.639- 436 1.98  29 2.09 340 2.62 351 2.79
 158  0.248  0.574  0.629- 428 2.00  26 2.03 344 2.54 336 2.55
 159  0.754  0.692  0.657-  23 2.06  43 2.11 392 2.42 327 2.96 340 3.18
 160  0.262  0.800  0.646- 434 1.96  31 2.06 347 2.78 346 2.92
 161  0.251  0.059  0.642- 432 1.79 326 2.50 343 2.50
 162  0.917  0.563  0.361- 404 1.97 378 2.79 362 2.79
 163  0.500  0.374  0.500- 423 1.98 417 1.99 350 2.80 357 2.80 389 2.82 345 2.85
 164  0.500  0.621  0.500- 453 1.98 424 1.98 357 2.71 328 2.79 351 2.82 365 2.94
 165  0.832  0.623  0.500- 400 1.89 457 2.05 355 2.75 362 2.80 320 2.87 327 3.12
 166  0.412  0.813  0.639- 454 1.95  40 2.07 347 2.60 354 2.69
 167  0.252  0.188  0.547- 451 1.87 430 2.13 360 2.64 377 2.72 326 3.13 343 3.34
 168  0.833  0.125  0.500- 445 1.95 402 2.02 370 2.77 380 2.78 330 2.79 338 3.49
 169  0.167  0.376  0.498- 444 1.90 449 2.02 367 2.72 323 2.76 377 2.87 342 3.29
 170  0.168  0.624  0.500- 450 1.90 442 2.05 323 2.78 335 2.80 363 2.84 344 3.05
 171  0.581  0.439  0.646-  36 2.11 436 2.12  16 2.15 345 2.85 348 3.04
 172  0.577  0.686  0.639- 441 1.86  18 2.11 351 2.60 340 2.86
 173  0.917  0.186  0.640- 458 1.79 338 2.49 369 2.52
 174  0.249  0.317  0.641- 430 1.94   7 2.06 342 2.57 368 2.65
 175  0.498  0.254  0.592- 435 1.98 433 2.06 345 2.63 389 2.68 337 2.96
 176  0.916  0.437  0.454- 404 1.98 397 2.10 331 2.77 355 2.78 352 2.80 356 2.91
 177  0.167  0.124  0.499- 451 1.96 443 2.00 374 2.76 353 2.77 377 2.77
 178  0.748  0.060  0.544- 445 1.84 439 2.21 364 2.64 380 2.68 329 3.15 338 3.30
 179  0.426  0.305  0.657-   9 2.13  49 2.14 435 2.34 345 2.97 368 3.41
 180  0.591  0.810  0.646- 441 1.94  44 2.09 341 2.64 354 2.82
 181  0.420  0.676  0.634-  24 2.03 454 2.04 351 2.57 336 2.61
 182  0.832  0.373  0.500- 446 1.89 397 2.05 370 2.78 331 2.78 355 2.84 321 3.10
 183  0.416  0.937  0.546- 407 1.85 429 2.25 359 2.71 376 2.71 347 2.88 354 3.08
 184  0.087  0.314  0.547- 449 1.84 440 2.25 377 2.68 387 2.76 342 2.87 339 3.40
 185  0.833  0.000  0.407- 420 1.97 408 1.97 330 2.79 384 2.79 380 2.99
 186  0.250  0.188  0.454- 393 1.97 451 2.13 360 2.74 353 2.81 390 2.81 377 2.85
 187  0.250  0.936  0.454- 406 1.94 418 2.01 319 2.78 382 2.78 359 2.90 374 2.92
 188  0.665  0.626  0.503- 424 1.93 400 2.06 340 2.71 366 2.81 372 2.81 385 2.88
 189  0.584  0.563  0.455- 424 1.99 412 2.01 357 2.78 385 2.79 372 2.79 328 2.83
 190  0.583  0.064  0.454- 415 2.00 399 2.03 324 2.78 379 2.78 364 2.87 376 2.89
 191  0.917  0.687  0.361- 398 1.97 378 2.79 362 2.79
 192  0.917  0.437  0.361- 404 1.97 352 2.79 331 2.79
 193  0.917  0.188  0.361- 410 1.97 333 2.79 330 2.79
 194  0.583  0.938  0.361- 415 1.97 325 2.79 349 2.79
 195  0.583  0.687  0.361- 411 1.97 328 2.79 385 2.79
 196  0.583  0.437  0.361- 412 1.97 350 2.79 371 2.79
 197  0.583  0.188  0.361- 413 1.97 324 2.79 379 2.79
 198  0.250  0.938  0.361- 418 1.97 319 2.79 382 2.79
 199  0.917  0.938  0.361- 408 1.97 373 2.79 384 2.79
 200  0.749  0.689  0.458- 400 1.96 419 2.04 366 2.78 320 2.84 385 2.85 362 2.88
 201  0.250  0.687  0.361- 422 1.97 335 2.79 383 2.79
 202  0.750  0.938  0.361- 420 1.97 349 2.79 384 2.79
 203  0.750  0.687  0.361- 419 1.97 385 2.79 362 2.79
 204  0.750  0.437  0.361- 409 1.97 371 2.79 331 2.79
 205  0.750  0.188  0.361- 447 1.97 379 2.79 330 2.79
 206  0.417  0.938  0.361- 426 1.97 382 2.79 325 2.79
 207  0.417  0.687  0.361- 421 1.97 383 2.79 328 2.79
 208  0.417  0.437  0.361- 403 1.97 381 2.79 350 2.79
 209  0.250  0.437  0.361- 416 1.97 367 2.79 381 2.79
 210  0.083  0.063  0.361- 396 1.97 353 2.79 333 2.79
 211  0.915  0.687  0.453- 398 1.98 457 2.09 362 2.76 320 2.79 378 2.80 388 2.94
 212  0.665  0.379  0.503- 417 1.94 446 2.06 372 2.71 348 2.71 371 2.88 358 2.92
 213  0.334  0.378  0.503- 423 1.94 444 2.08 361 2.70 368 2.70 381 2.88 360 2.91
 214  0.336  0.626  0.504- 453 1.93 450 2.08 336 2.74 375 2.80 361 2.83 383 2.90
 215  0.918  0.063  0.547- 402 1.85 437 2.21 386 2.71 380 2.72 338 3.16 369 3.21
 216  0.250  0.188  0.361- 393 1.97 353 2.79 390 2.79
 217  0.750  0.938  0.455- 425 1.95 420 2.00 349 2.82 384 2.84 364 2.84 380 2.88
 218  0.251  0.062  0.454- 418 1.98 451 2.10 390 2.80 353 2.81 359 2.84 374 2.88
 219  0.749  0.813  0.453- 419 1.97 425 2.09 349 2.76 384 2.79 366 2.83 320 2.88
 220  0.249  0.314  0.546- 444 1.85 430 2.30 368 2.66 377 2.72 360 2.74 342 3.03
 221  0.916  0.187  0.453- 410 1.98 402 2.11 370 2.76 330 2.76 333 2.79 387 2.93
 222  0.750  0.190  0.456- 447 1.99 445 2.10 358 2.76 370 2.79 330 2.84 379 2.85
 223  0.417  0.936  0.454- 407 1.99 426 2.01 325 2.76 382 2.79 376 2.87 359 2.92
 224  0.417  0.685  0.455- 453 1.91 421 2.04 328 2.77 383 2.79 375 2.84 365 2.90
 225  0.417  0.436  0.454- 423 1.96 403 2.02 350 2.77 381 2.78 357 2.82 361 2.85
 226  0.084  0.687  0.453- 394 1.97 442 2.08 335 2.76 378 2.80 363 2.82 388 2.94
 227  0.084  0.937  0.454- 396 1.99 455 2.11 319 2.77 373 2.80 374 2.89 386 2.91
 228  0.083  0.437  0.453- 395 1.97 449 2.12 352 2.76 367 2.78 323 2.79 356 2.91
 229  0.084  0.187  0.453- 391 1.98 443 2.12 353 2.76 333 2.78 377 2.87 387 2.89
 230  0.917  0.812  0.454- 398 1.98 456 2.12 320 2.75 384 2.80 373 2.80 388 2.87
 231  0.746  0.558  0.545- 448 1.96 400 1.97 372 2.61 355 2.78 340 2.84 327 3.23
 232  0.916  0.562  0.454- 404 1.98 457 2.11 355 2.77 362 2.79 378 2.81 356 2.89
 233  0.916  0.062  0.454- 408 1.98 402 2.10 330 2.79 333 2.81 380 2.85 386 2.89
 234  0.750  0.438  0.456- 446 1.97 409 2.01 372 2.72 371 2.83 331 2.84 355 2.84
 235  0.916  0.312  0.454- 410 1.97 397 2.09 370 2.78 331 2.79 352 2.80 387 2.90
 236  0.252  0.688  0.456- 450 1.99 422 2.03 375 2.76 383 2.80 335 2.87 363 2.89
 237  0.916  0.937  0.454- 408 1.98 456 2.11 384 2.78 373 2.79 380 2.88 386 2.90
 238  0.583  0.190  0.456- 413 1.98 399 2.09 389 2.71 358 2.75 324 2.85 379 2.86
 239  0.000  0.125  0.498- 402 1.96 443 1.98 333 2.74 387 2.80 386 2.80
 240  0.583  0.810  0.455- 411 1.98 401 2.10 366 2.73 365 2.75 325 2.84 349 2.84
 241  0.000  0.374  0.498- 397 1.94 449 1.96 352 2.74 387 2.77 356 2.83
 242  1.000  0.627  0.498- 457 1.94 442 1.94 378 2.72 388 2.78 356 2.85
 243  0.334  0.126  0.499- 452 1.96 451 2.01 360 2.74 390 2.75 359 2.79 326 3.44
 244  0.000  0.875  0.500- 455 1.97 456 1.97 373 2.78 388 2.78 386 2.79
 245  0.334  0.874  0.499- 407 1.97 406 2.00 375 2.75 382 2.77 359 2.84 347 3.11
 246  0.666  0.126  0.500- 399 1.96 445 2.01 358 2.71 379 2.78 364 2.83 329 3.33
 247  0.251  0.439  0.455- 416 1.98 444 2.06 361 2.70 381 2.81 367 2.85 323 2.85
 248  0.083  0.563  0.361- 395 1.97 378 2.79 335 2.79
 249  0.917  0.063  0.361- 408 1.97 333 2.79 330 2.79
 250  0.417  0.187  0.454- 414 1.98 452 2.07 324 2.79 390 2.79 389 2.82 360 2.87
 251  0.583  0.439  0.456- 412 2.01 417 2.01 357 2.70 372 2.78 350 2.84 371 2.87
 252  0.775  0.111  0.830-  51 1.18
 253  0.252  0.565  0.454- 450 1.99 416 2.01 383 2.74 361 2.77 335 2.80 323 2.92
 254  0.833  0.250  0.407- 447 1.97 410 1.97 331 2.79 330 2.79 370 2.86
 255  0.584  0.315  0.454- 417 1.94 413 2.02 371 2.75 350 2.78 389 2.87 358 2.87
 256  0.748  0.808  0.545- 392 1.83 425 2.04 366 2.65 320 2.75 341 3.16 322 3.33
 257  0.500  0.500  0.407- 412 1.97 403 1.97 328 2.79 350 2.79 357 2.80
 258  0.083  0.188  0.361- 391 1.97 353 2.79 333 2.79
 259  0.000  0.000  0.407- 408 1.97 396 1.97 333 2.79 373 2.79 386 2.99
 260  0.000  0.250  0.407- 410 1.97 391 1.97 352 2.79 333 2.79 387 2.97
 261  0.000  0.500  0.407- 404 1.97 395 1.97 352 2.79 378 2.79 356 2.99
 262  0.748  0.564  0.454- 400 1.99 409 2.01 385 2.75 372 2.76 362 2.80 355 2.92
 263  0.333  0.000  0.407- 426 1.97 418 1.97 390 2.79 382 2.79 359 2.96
 264  0.333  0.500  0.407- 403 1.97 416 1.97 381 2.79 383 2.79 361 2.82
 265  0.333  0.750  0.407- 421 1.97 422 1.97 382 2.79 383 2.79 375 2.84
 266  0.667  0.000  0.407- 420 1.97 415 1.97 379 2.79 349 2.79 364 2.96
 267  0.667  0.250  0.407- 447 1.97 413 1.97 371 2.79 379 2.79 358 2.87
 268  0.251  0.811  0.455- 422 1.99 406 2.07 375 2.75 382 2.83 363 2.83 319 2.85
 269  0.667  0.750  0.407- 419 1.97 411 1.97 349 2.79 385 2.79 366 2.86
 270  0.167  0.250  0.407- 393 1.97 391 1.97 367 2.79 353 2.79 377 2.98
 271  0.167  0.500  0.407- 416 1.97 395 1.97 335 2.79 367 2.79 323 2.85
 272  0.167  0.750  0.407- 422 1.97 394 1.97 319 2.79 335 2.79 363 2.89
 273  0.500  0.000  0.407- 415 1.97 426 1.97 324 2.79 325 2.79 376 2.96
 274  0.500  0.250  0.407- 413 1.97 414 1.97 350 2.79 324 2.79 389 2.86
 275  0.500  0.750  0.407- 411 1.97 421 1.97 325 2.79 328 2.79 365 2.91
 276  0.917  0.312  0.361- 410 1.97 352 2.79 331 2.79
 277  0.333  0.250  0.407- 414 1.97 393 1.97 381 2.79 390 2.79 360 2.88
 278  0.747  0.314  0.455- 446 1.98 447 2.02 371 2.74 358 2.81 331 2.83 370 2.93
 279  0.000  0.750  0.407- 398 1.97 394 1.97 373 2.79 378 2.79 388 2.99
 280  0.417  0.810  0.455- 421 1.97 407 2.09 375 2.74 365 2.79 382 2.84 325 2.84
 281  0.583  0.686  0.455- 424 1.91 411 2.02 328 2.78 385 2.80 366 2.83 365 2.85
 282  0.749  0.064  0.453- 445 1.99 420 2.00 379 2.76 330 2.78 364 2.90 380 2.94
 283  0.916  0.313  0.546- 397 1.84 458 2.20 370 2.71 387 2.74 321 2.84 339 3.40
 284  0.167  0.000  0.407- 418 1.97 396 1.97 353 2.79 319 2.79 374 2.99
 285  0.583  0.563  0.361- 412 1.97 328 2.79 385 2.79
 286  0.667  0.500  0.407- 409 1.97 412 1.97 371 2.79 385 2.79 372 2.81
 287  0.252  0.314  0.454- 444 1.97 393 2.01 381 2.74 360 2.78 367 2.82 377 2.96
 288  0.250  0.812  0.361- 422 1.97 319 2.79 382 2.79
 289  0.583  0.812  0.361- 411 1.97 325 2.79 349 2.79
 290  0.583  0.063  0.361- 415 1.97 324 2.79 379 2.79
 291  0.250  0.563  0.361- 416 1.97 335 2.79 383 2.79
 292  0.250  0.312  0.361- 393 1.97 367 2.79 381 2.79
 293  0.250  0.063  0.361- 418 1.97 353 2.79 390 2.79
 294  0.750  0.563  0.361- 409 1.97 385 2.79 362 2.79
 295  0.750  0.312  0.361- 447 1.97 371 2.79 331 2.79
 296  0.750  0.063  0.361- 420 1.97 379 2.79 330 2.79
 297  0.417  0.563  0.361- 403 1.97 383 2.79 328 2.79
 298  0.417  0.312  0.361- 414 1.97 381 2.79 350 2.79
 299  0.750  0.812  0.361- 419 1.97 349 2.79 384 2.79
 300  0.083  0.312  0.454- 391 1.98 449 2.10 367 2.80 352 2.81 387 2.85 377 2.89
 301  0.417  0.063  0.361- 426 1.97 390 2.79 324 2.79
 302  0.417  0.062  0.455- 452 1.96 426 2.00 324 2.83 390 2.83 359 2.83 376 2.84
 303  0.417  0.812  0.361- 421 1.97 382 2.79 325 2.79
 304  0.251  0.063  0.547- 451 1.84 432 2.24 359 2.68 374 2.73 326 3.03 343 3.28
 305  0.414  0.812  0.548- 454 1.95 407 1.96 375 2.71 365 2.78 347 2.91 354 3.13
 306  0.083  0.812  0.454- 394 1.98 455 2.11 363 2.77 319 2.80 373 2.81 388 2.87
 307  0.833  0.500  0.407- 409 1.97 404 1.97 331 2.79 362 2.79 355 2.88
 308  0.083  0.812  0.361- 394 1.97 373 2.79 319 2.79
 309  0.583  0.312  0.361- 413 1.97 350 2.79 371 2.79
 310  0.083  0.938  0.361- 396 1.97 373 2.79 319 2.79
 311  0.083  0.687  0.361- 394 1.97 378 2.79 335 2.79
 312  0.417  0.188  0.361- 414 1.97 390 2.79 324 2.79
 313  0.833  0.750  0.407- 419 1.97 398 1.97 384 2.79 362 2.79 320 2.87
 314  0.416  0.311  0.457- 423 1.91 414 2.04 360 2.82 389 2.82 381 2.84 350 2.88
 315  0.084  0.062  0.454- 396 1.98 443 2.11 353 2.80 333 2.81 374 2.85 386 2.88
 316  0.416  0.560  0.458- 453 1.97 403 2.02 357 2.73 361 2.74 383 2.88 328 2.90
 317  0.084  0.563  0.454- 395 1.98 442 2.10 323 2.75 335 2.79 378 2.81 356 2.91
 318  0.083  0.437  0.361- 395 1.97 367 2.79 352 2.79
 319  0.167  0.875  0.407- 227 2.77 187 2.78 117 2.79 288 2.79 308 2.79 198 2.79 310 2.79 272 2.79
                           284 2.79 306 2.80 268 2.85 422 3.42 394 3.42 418 3.42 396 3.42 406 3.47
 320  0.836  0.752  0.503-  82 2.66  76 2.67 135 2.71 110 2.74 230 2.75 256 2.75 211 2.79 200 2.84
                           313 2.87 165 2.87 219 2.88  79 2.98 392 3.31 456 3.37 457 3.43 398 3.45
 321  0.838  0.373  0.603- 134 2.52 153 2.53 150 2.62 121 2.77 136 2.80 283 2.84  70 2.90 133 2.92
                           115 2.93  61 3.05 182 3.10 458 3.39 405 3.41 431 3.44 448 3.49 397 3.49
 322  0.832  0.877  0.618- 144 2.47 111 2.48 154 2.50 120 2.69 112 2.91 135 2.91  67 3.15  80 3.24
                            76 3.25 256 3.33 437 3.43 439 3.44 392 3.46 462 3.47 456 3.91 341 3.95
 323  0.164  0.500  0.502- 107 2.56  88 2.67 317 2.75 169 2.76  57 2.77 170 2.78  65 2.79 228 2.79
                           106 2.84 271 2.85 247 2.85 253 2.92 428 3.33 449 3.40 442 3.42 395 3.42
 324  0.500  0.125  0.407-  90 2.76 190 2.78 250 2.79 290 2.79 197 2.79 301 2.79 312 2.79 273 2.79
                           274 2.79 302 2.83 238 2.85 415 3.42 413 3.42 426 3.42 414 3.42 452 3.49
 325  0.500  0.875  0.407- 223 2.76  64 2.79 289 2.79 303 2.79 194 2.79 206 2.79 275 2.79 273 2.79
                           151 2.82 240 2.84 280 2.84 411 3.42 421 3.42 415 3.42 426 3.42 407 3.51
 326  0.332  0.120  0.613- 161 2.50  91 2.51 147 2.52 128 2.66  94 2.75 304 3.03  56 3.07 108 3.07
                           167 3.13  86 3.24 432 3.35 429 3.36 430 3.43 243 3.44 435 3.54 451 3.74
 327  0.839  0.627  0.604- 145 2.50 152 2.52 149 2.61 135 2.79 133 2.83  79 2.83  82 2.85  74 2.89
                           159 2.96 165 3.12 231 3.23 462 3.35 405 3.40 448 3.42 457 3.48 392 3.51
 328  0.500  0.625  0.407- 224 2.77 281 2.78 285 2.79 195 2.79 297 2.79 207 2.79 257 2.79 275 2.79
                           164 2.79 189 2.83 316 2.90 412 3.42 411 3.42 403 3.42 421 3.42 453 3.44
 329  0.665  0.125  0.611- 122 2.48 155 2.50 137 2.72 141 2.74  99 2.77 100 2.83 113 2.96  92 3.02
                            59 3.11 178 3.15 246 3.33 433 3.35 438 3.39 439 3.40 431 3.50 399 3.72
 330  0.833  0.125  0.407- 221 2.76 282 2.78 296 2.79 205 2.79 249 2.79 193 2.79 185 2.79 254 2.79
                           168 2.79 233 2.79 222 2.84 420 3.42 447 3.42 408 3.42 410 3.42 445 3.51
 331  0.833  0.375  0.407- 176 2.77 182 2.78 235 2.79 204 2.79 295 2.79 192 2.79 276 2.79 254 2.79
                           307 2.79 278 2.83 234 2.84 409 3.42 447 3.42 410 3.42 404 3.42 446 3.43
 332  0.999  0.875  0.624- 130 2.49 144 2.50 154 2.51 140 2.52  93 2.86  95 2.91  76 3.34  80 3.36
                            55 3.36  77 3.39 462 3.40 460 3.42 437 3.46 461 3.46 346 3.96 322 3.96
 333  0.000  0.125  0.407- 239 2.74 229 2.78 249 2.79 193 2.79 210 2.79 258 2.79 259 2.79 260 2.79
                           221 2.79 233 2.81 315 2.81 408 3.42 410 3.42 396 3.42 391 3.42 402 3.56
 334  1.000  0.623  0.624- 131 2.47 145 2.48 152 2.49 125 2.50  84 2.93  93 3.06  57 3.30  74 3.30
                           405 3.42 427 3.43  82 3.43  87 3.45 460 3.51 462 3.52 327 3.84 344 3.85
 335  0.167  0.625  0.407- 226 2.76 317 2.79 291 2.79 201 2.79 248 2.79 311 2.79 271 2.79 272 2.79
                           170 2.80 253 2.80 236 2.87 416 3.42 422 3.42 395 3.42 394 3.42 450 3.46
 336  0.334  0.625  0.595- 158 2.55  98 2.60 181 2.61  75 2.71  78 2.73 214 2.74 148 2.81  97 2.87
                            65 2.87 114 2.92 142 3.02 459 3.38 454 3.42 453 3.44 450 3.44 434 3.49
 337  0.500  0.123  0.607- 155 2.50  91 2.54 128 2.63 141 2.71 109 2.77  92 2.89 175 2.96  56 2.96
                            59 3.01  86 3.10  90 3.24 438 3.34 429 3.37 433 3.44 435 3.49 399 3.65
 338  0.834  0.124  0.616- 118 2.49 173 2.49 122 2.50 137 2.75 112 2.82 136 2.89 113 3.12 215 3.16
                            69 3.25 178 3.30 439 3.40 437 3.41 431 3.42 458 3.47 168 3.49 402 3.85
 339  0.000  0.375  0.625- 123 2.49 153 2.50 126 2.52 134 2.53  84 2.91  96 2.96 283 3.40 184 3.40
                            70 3.42  88 3.42 427 3.45 405 3.46 458 3.46 440 3.52 342 3.89 321 3.90
 340  0.666  0.626  0.593- 101 2.57 157 2.62  79 2.64 188 2.71 149 2.74  71 2.82  60 2.83 231 2.84
                           172 2.86 102 2.94 159 3.18 436 3.31 441 3.38 424 3.40 400 3.41  43 3.41
 341  0.665  0.881  0.607- 139 2.51 111 2.53 120 2.59 180 2.64 100 2.70  67 2.92  68 2.95  62 2.95
                           256 3.16 101 3.17 124 3.26 438 3.32 439 3.35 441 3.51 392 3.57 401 3.61
 342  0.163  0.371  0.607- 126 2.51 123 2.51 174 2.57 143 2.62 104 2.78 184 2.87 107 3.01 106 3.03
                           220 3.03  88 3.07 169 3.29 440 3.34 428 3.41 427 3.46 430 3.46 449 3.60
 343  0.168  0.123  0.622- 132 2.50 161 2.50 127 2.50 147 2.54 103 2.92 104 2.93 304 3.28  66 3.30
                           167 3.34  89 3.38 430 3.40 432 3.44 461 3.46 440 3.47 326 3.89 369 3.95
 344  0.160  0.627  0.602- 131 2.51 125 2.53 158 2.54 105 2.76  87 2.79 107 2.81  57 2.86  78 2.87
                           170 3.05 142 3.11  65 3.19 460 3.34 427 3.40 442 3.43 428 3.50 434 3.53
 345  0.502  0.371  0.595- 129 2.54 156 2.54  54 2.62 175 2.63  58 2.66  83 2.78 171 2.85 163 2.85
                            85 2.88 179 2.97  73 3.00 433 3.39 417 3.40 435 3.43 423 3.48 459 3.54
 346  0.166  0.874  0.618- 146 2.46 130 2.48 140 2.48 105 2.84 103 2.89 160 2.92  55 3.17  81 3.19
                            77 3.25  72 3.29 460 3.41 432 3.43 434 3.43 461 3.43 117 3.54 455 3.88
 347  0.335  0.879  0.603- 146 2.49 119 2.58 166 2.60  94 2.72 160 2.78 183 2.88  81 2.89 305 2.91
                            72 2.92  98 3.09 245 3.11 432 3.33 429 3.34 454 3.47 434 3.47 407 3.55
 348  0.671  0.372  0.593- 156 2.64  61 2.65 121 2.66 212 2.71 115 2.72 102 2.73 150 2.75  99 2.81
                            83 2.85  54 2.91 171 3.04 446 3.36 431 3.42 417 3.42 433 3.45 436 3.45
 349  0.667  0.875  0.407- 124 2.76 219 2.76 299 2.79 202 2.79 289 2.79 194 2.79 269 2.79 266 2.79
                            64 2.81 217 2.82 240 2.84 419 3.42 411 3.42 420 3.42 415 3.42 425 3.50
 350  0.500  0.375  0.407- 225 2.77 255 2.78 196 2.79 309 2.79 208 2.79 298 2.79 257 2.79 274 2.79
                           163 2.80 251 2.84 314 2.88 412 3.42 413 3.42 403 3.42 414 3.42 423 3.45
 351  0.504  0.625  0.594- 181 2.57 172 2.60  71 2.65  75 2.66  60 2.70  73 2.73 114 2.76 157 2.79
                           164 2.82  63 2.94 424 3.38 441 3.39 436 3.44 453 3.46 454 3.48 148 3.48
 352  0.000  0.375  0.407- 241 2.74 228 2.76 192 2.79 276 2.79 318 2.79 116 2.79 260 2.79 261 2.79
                           176 2.80 235 2.80 300 2.81 404 3.42 410 3.42 391 3.42 395 3.42 397 3.53
 353  0.167  0.125  0.407- 229 2.76 177 2.77 293 2.79 216 2.79 210 2.79 258 2.79 284 2.79 270 2.79
                           315 2.80 186 2.81 218 2.81 418 3.42 393 3.42 396 3.42 391 3.42 451 3.57
 354  0.501  0.877  0.610- 139 2.50 119 2.53 166 2.69  63 2.73 109 2.81 180 2.82  62 3.03  68 3.05
                           183 3.08 305 3.13 151 3.27 438 3.39 429 3.39 441 3.47 454 3.48 401 3.69
 355  0.836  0.500  0.503- 133 2.59  70 2.67  74 2.74 165 2.75 232 2.77 231 2.78 176 2.78 115 2.83
                           182 2.84 234 2.84 307 2.88 262 2.92 448 3.35 446 3.41 457 3.41 400 3.41
 356  1.000  0.500  0.507-  84 2.62  88 2.65  57 2.68  74 2.69  70 2.70 241 2.83 242 2.85 232 2.89
                           317 2.91 176 2.91 228 2.91 261 2.99 397 3.40 457 3.40 442 3.41 449 3.41
 357  0.501  0.500  0.500-  85 2.62 251 2.70 164 2.71 316 2.73  60 2.74  54 2.77 189 2.78 257 2.80
                           163 2.80 225 2.82  75 2.92  73 3.27 412 3.41 417 3.43 403 3.44 423 3.45
 358  0.667  0.248  0.503-  99 2.65 246 2.71  61 2.72  83 2.75 238 2.75 222 2.76 278 2.81 113 2.81
                           255 2.87 267 2.87  92 2.88 212 2.92 431 3.39 399 3.41 417 3.42 445 3.44
 359  0.333  0.001  0.506-  94 2.59  72 2.68 304 2.68 183 2.71  56 2.74 243 2.79 302 2.83 245 2.84
                           218 2.84 187 2.90 223 2.92 263 2.96 452 3.33 406 3.38 451 3.40 407 3.41
 360  0.330  0.248  0.503- 167 2.64 108 2.70  86 2.73 243 2.74 220 2.74 186 2.74 287 2.78 314 2.82
                           250 2.87 277 2.88 213 2.91  58 2.98 435 3.33 451 3.36 444 3.42 393 3.45
 361  0.331  0.499  0.501-  65 2.63 213 2.70 247 2.70  97 2.70 316 2.74 253 2.77 106 2.82 264 2.82
                           214 2.83  85 2.84 225 2.85  75 3.04 459 3.35 416 3.41 450 3.42 423 3.44
 362  0.833  0.625  0.407- 211 2.76 294 2.79 203 2.79 162 2.79 191 2.79 307 2.79 313 2.79 232 2.79
                           165 2.80 262 2.80 200 2.88 409 3.42 419 3.42 404 3.42 398 3.42 400 3.44
 363  0.164  0.751  0.503-  87 2.64  55 2.67 117 2.72 105 2.75 306 2.77 226 2.82 268 2.83 170 2.84
                            81 2.88 236 2.89 272 2.89  78 2.90 434 3.34 455 3.37 442 3.43 450 3.45
 364  0.666  1.000  0.506- 100 2.59 178 2.64  68 2.68  59 2.69  67 2.77 124 2.81 246 2.83 217 2.84
                            64 2.86 190 2.87 282 2.90 266 2.96 425 3.37 445 3.38 399 3.38 401 3.38
 365  0.501  0.753  0.504-  63 2.66 114 2.68 151 2.68  71 2.71 240 2.75 305 2.78 280 2.79  62 2.81
                           281 2.85 224 2.90 275 2.91 164 2.94 454 3.37 401 3.37 407 3.42 424 3.42
 366  0.665  0.752  0.502- 256 2.65 101 2.67 240 2.73 124 2.74  62 2.75 200 2.78 188 2.81 281 2.83
                           219 2.83  71 2.85 269 2.86  79 3.02 392 3.35 401 3.37 424 3.38 411 3.45
 367  0.167  0.375  0.407- 169 2.72 228 2.78 209 2.79 318 2.79 292 2.79 116 2.79 270 2.79 271 2.79
                           300 2.80 287 2.82 247 2.85 393 3.42 416 3.42 395 3.42 391 3.42 444 3.44
 368  0.326  0.373  0.593- 129 2.59 174 2.65 106 2.65 220 2.66 108 2.66 213 2.70  58 2.73  97 2.75
                           143 2.94  85 3.11 444 3.29   9 3.39 430 3.39 179 3.41 428 3.41 459 3.42
 369  0.001  0.123  0.620- 127 2.50 118 2.50 132 2.51 173 2.52  95 2.87  96 2.97  66 3.19 215 3.21
                            89 3.31  69 3.33 437 3.42 461 3.43 458 3.44 440 3.45 443 3.91 402 3.93
 370  0.836  0.248  0.502- 136 2.64  69 2.67 283 2.71 221 2.76 168 2.77 182 2.78 235 2.78 222 2.79
                           254 2.86  61 2.87 113 2.93 278 2.93 431 3.31 402 3.37 397 3.42 410 3.44
 371  0.667  0.375  0.407- 278 2.74 255 2.75 204 2.79 295 2.79 196 2.79 309 2.79 267 2.79 286 2.79
                           234 2.83 251 2.87 212 2.88 409 3.42 447 3.42 413 3.42 412 3.42 417 3.46
 372  0.668  0.500  0.501- 231 2.61 212 2.71 234 2.72 102 2.72 262 2.76 251 2.78 189 2.79 286 2.81
                           188 2.81  60 2.86 115 2.86  54 3.03 436 3.35 409 3.41 446 3.41 400 3.42
 373  0.000  0.875  0.407- 244 2.78 138 2.79 308 2.79 199 2.79 310 2.79 279 2.79 259 2.79 237 2.79
                           227 2.80 230 2.80 306 2.81 398 3.42 394 3.42 408 3.42 396 3.42 456 3.58
 374  0.166  0.001  0.507- 103 2.57  77 2.67  66 2.71 304 2.73  72 2.73 177 2.76 315 2.85 117 2.86
                           218 2.88 227 2.89 187 2.92 284 2.99 406 3.37 443 3.39 451 3.39 455 3.44
 375  0.334  0.751  0.502-  98 2.68 305 2.71 280 2.74 245 2.75 268 2.75 236 2.76  81 2.77 214 2.80
                           265 2.84 224 2.84 114 2.88  78 2.93 434 3.37 454 3.40 453 3.41 407 3.42
 376  0.500  0.999  0.506- 109 2.57  59 2.68  68 2.70 183 2.71  56 2.77 151 2.82  90 2.83  64 2.84
                           302 2.84 223 2.87 190 2.89 273 2.96 407 3.37 452 3.38 401 3.39 399 3.40
 377  0.166  0.248  0.506- 104 2.61  89 2.64 184 2.68 167 2.72 220 2.72 177 2.77 186 2.85 169 2.87
                           229 2.87 300 2.89 287 2.96 270 2.98 444 3.37 451 3.39 443 3.39 449 3.46
 378  0.000  0.625  0.407- 242 2.72 162 2.79 191 2.79 248 2.79 311 2.79 261 2.79 279 2.79 226 2.80
                           211 2.80 317 2.81 232 2.81 404 3.42 398 3.42 395 3.42 394 3.42 442 3.52
 379  0.667  0.125  0.407- 282 2.76 246 2.78 190 2.78 296 2.79 205 2.79 290 2.79 197 2.79 266 2.79
                           267 2.79 222 2.85 238 2.86 420 3.42 447 3.42 415 3.42 413 3.42 445 3.53
 380  0.834  0.000  0.507- 112 2.57  80 2.65 178 2.68 215 2.72 168 2.78  67 2.79 110 2.82 233 2.85
                           237 2.88 217 2.88 282 2.94 185 2.99 425 3.36 445 3.36 456 3.41 402 3.42
 381  0.333  0.375  0.407- 287 2.74 225 2.78 208 2.79 298 2.79 209 2.79 292 2.79 277 2.79 264 2.79
                           247 2.81 314 2.84 213 2.88 403 3.42 414 3.42 393 3.42 416 3.42 423 3.43
 382  0.333  0.875  0.407- 245 2.77 187 2.78 303 2.79 288 2.79 206 2.79 198 2.79 265 2.79 263 2.79
                           223 2.79 268 2.83 280 2.84 421 3.42 422 3.42 426 3.42 418 3.42 406 3.49
 383  0.333  0.625  0.407- 253 2.74 224 2.79 297 2.79 207 2.79 291 2.79 201 2.79 264 2.79 265 2.79
                           236 2.80 316 2.88 214 2.90 403 3.42 421 3.42 416 3.42 422 3.42 453 3.45
 384  0.833  0.875  0.407- 110 2.75 237 2.78 219 2.79 299 2.79 202 2.79 138 2.79 199 2.79 313 2.79
                           185 2.79 230 2.80 217 2.84 419 3.42 398 3.42 420 3.42 408 3.42 425 3.48
 385  0.667  0.625  0.407- 262 2.75 189 2.79 294 2.79 203 2.79 285 2.79 195 2.79 286 2.79 269 2.79
                           281 2.80 200 2.85 188 2.88 409 3.42 419 3.42 412 3.42 411 3.42 424 3.43
 386  0.000  1.000  0.507-  95 2.59  77 2.69  66 2.70  80 2.70 215 2.71 244 2.79 239 2.80 315 2.88
                           233 2.89 237 2.90 227 2.91 259 2.99 456 3.40 402 3.40 455 3.40 443 3.41
 387  0.001  0.250  0.506-  96 2.58  89 2.66  69 2.67 283 2.74 184 2.76 241 2.77 239 2.80 300 2.85
                           229 2.89 235 2.90 221 2.93 260 2.97 449 3.38 397 3.39 443 3.40 402 3.42
 388  1.000  0.751  0.507-  93 2.58  76 2.71  87 2.72  82 2.72  55 2.73 244 2.78 242 2.78 230 2.87
                           306 2.87 226 2.94 211 2.94 279 2.99 455 3.39 442 3.39 456 3.39 457 3.40
 389  0.501  0.248  0.502- 175 2.68 238 2.71  86 2.72  83 2.73  90 2.73  92 2.74 163 2.82 314 2.82
                           250 2.82 274 2.86 255 2.87  58 2.98 435 3.36 399 3.39 417 3.41 413 3.46
 390  0.333  0.125  0.407- 243 2.75 301 2.79 312 2.79 293 2.79 216 2.79 263 2.79 277 2.79 250 2.79
                           218 2.80 186 2.81 302 2.83 426 3.42 414 3.42 418 3.42 393 3.42 452 3.48
 391  0.083  0.250  0.407- 116 1.97 258 1.97 260 1.97 270 1.97 300 1.98 229 1.98 352 3.42 367 3.42
                           353 3.42 333 3.42 387 3.55 377 3.57
 392  0.752  0.753  0.590- 256 1.83 135 1.86  79 1.96 120 1.98 101 2.06 159 2.42  23 3.13 320 3.31
                           366 3.35 322 3.46 340 3.47 327 3.51 341 3.57
 393  0.250  0.250  0.407- 186 1.97 292 1.97 216 1.97 270 1.97 277 1.97 287 2.01 367 3.42 353 3.42
                           381 3.42 390 3.42 360 3.45 377 3.57
 394  0.083  0.750  0.407- 308 1.97 311 1.97 272 1.97 279 1.97 226 1.97 306 1.98 319 3.42 373 3.42
                           335 3.42 378 3.42 363 3.47 388 3.58
 395  0.083  0.500  0.407- 228 1.97 248 1.97 318 1.97 271 1.97 261 1.97 317 1.98 335 3.42 352 3.42
                           367 3.42 378 3.42 323 3.42 356 3.59
 396  0.083  0.000  0.407- 310 1.97 210 1.97 284 1.97 259 1.97 315 1.98 227 1.99 333 3.42 353 3.42
                           319 3.42 373 3.42 374 3.57 386 3.58
 397  0.919  0.374  0.506- 283 1.84  70 1.85 241 1.94 182 2.05 235 2.09 176 2.10 387 3.39 356 3.40
                           355 3.42 370 3.42 321 3.49 352 3.53 331 3.59
 398  0.917  0.750  0.407- 138 1.97 191 1.97 279 1.97 313 1.97 230 1.98 211 1.98 373 3.42 378 3.42
                           384 3.42 362 3.42 320 3.45 388 3.58
 399  0.583  0.123  0.505-  59 1.84  92 1.94 246 1.96  90 1.99 190 2.03 238 2.09 364 3.38 389 3.39
                           376 3.40 358 3.41 324 3.53 379 3.53 337 3.65 329 3.72
 400  0.752  0.625  0.502- 165 1.89 200 1.96  79 1.97 231 1.97 262 1.99 188 2.06 340 3.41 355 3.41
                           372 3.42 362 3.44 320 3.46 385 3.51 366 3.51 327 3.68
 401  0.584  0.876  0.506-  68 1.84  62 1.92 124 1.97 151 1.99  64 2.06 240 2.10 365 3.37 366 3.37
                           364 3.38 376 3.39 349 3.55 325 3.57 341 3.61 354 3.69
 402  0.918  0.125  0.506-  69 1.85 215 1.85 239 1.96 168 2.02 233 2.10 221 2.11 370 3.37 386 3.40
                           380 3.42 387 3.42 333 3.56 330 3.59 338 3.85 369 3.93
 403  0.417  0.500  0.407- 297 1.97 208 1.97 264 1.97 257 1.97 225 2.02 316 2.02 381 3.42 383 3.42
[...]
  281          rpro_isp                              2.164975                          3   4
  282            fftwav_mpi                            1.632164                      420   5
  283              fft3d_mpi                             1.454595                    420   6
  284                fftbrc_mpi                            1.242334                  420   7
  285                  fftbas_plan_mpi                       1.240951                420   8
  286                    dfftw_execute                         0.630662             1260   9
  287                    map_forward                           0.351385              840   9
  288                      map_gather                            0.036042            420  10
  289                      m_alltoallv_z                         0.125050            420  10
  290                      map_scatter                           0.075998            420  10
  291            rpromu                                0.511052                      105   5
  292              rpromu_gemm                           0.147818                  24045   6
  293              m_sumb_d                              0.072415                    420   6
  294          m_sumb_d                              0.029709                          1   4
  295        fordep                                0.222005                            1   3
  296          setdij_                               0.221706                          6   4
  297            m_sumb_d                              0.050815                        6   5
  298          m_sumb_d                              0.000072                          1   4
  299        setdij_                               0.741278                           20   3
  300          m_sumb_d                              0.168992                         20   4
  301        set_dd_magatom                        0.000007                            1   3
  302        set_dd_paw                            0.011962                            1   3
  303          set_rsgf_all                          0.000001                          1   4
  304          m_sumb_d                              0.011735                          7   4
  305        strkin                                0.006043                            1   3
  306          m_sumb_d                              0.000643                          1   4
  307        strelo                                0.006776                            1   3
  308          m_sumb_d                              0.000504                          2   4
  309        strnlr                                6.880518                            1   3
  310          rspher_all                            0.321914                          9   4
  311          phaser                                0.000004                          9   4
  312          rpro_isp                              6.472482                          9   4
  313            fftwav_mpi                            4.939228                     1260   5
  314              fft3d_mpi                             4.415198                   1260   6
  315                fftbrc_mpi                            3.771444                 1260   7
  316                  fftbas_plan_mpi                       3.767608               1260   8
  317                    dfftw_execute                         1.913475             3780   9
  318                    map_forward                           1.076443             2520   9
  319                      map_gather                            0.108760           1260  10
  320                      m_alltoallv_z                         0.382178           1260  10
  321                      map_scatter                           0.232482           1260  10
  322            rpromu                                1.522387                      315   5
  323              rpromu_gemm                           0.444057                  72135   6
  324              m_sumb_d                              0.189732                   1260   6
  325          m_sumb_d                              0.064751                          1   4
  326        m_sumb_d                              0.002515                            7   3
  327        fft3d_mpi                             0.582130                           71   3
  328          fftbrc_mpi                            0.564426                         71   4
  329            fftbas_plan_mpi                       0.564118                       71   5
  330              dfftw_execute                         0.086476                    213   6
  331              map_forward                           0.218359                     70   6
  332                map_gather                            0.004285                   35   7
  333                m_alltoallv_z                         0.192098                   35   7
  334                map_scatter                           0.021276                   35   7
  335              map_backward                          0.207461                     72   6
  336                map_gather                            0.017637                   36   7
  337                m_alltoallv_z                         0.179419                   36   7
  338                map_scatter                           0.009665                   36   7
  339        ggaall_grid                           0.191804                            1   3
  340        forhar                                0.410126                            1   3
  341          m_sumb_d                              0.002881                          1   4
  342        strehar                               0.007969                            1   3
  343          m_sumb_d                              0.001067                          1   4
  344        m_bcast_d                             0.001557                            2   3
  345      potlok                                7.608077                              1   2
  346        fft3d_mpi                             2.857649                          329   3
  347          fftbrc_mpi                            2.775928                        329   4
  348            fftbas_plan_mpi                       2.774792                      329   5
  349              dfftw_execute                         0.416255                    987   6
  350              map_forward                           1.003463                    330   6
  351                map_gather                            0.022092                  166   7
  352                m_alltoallv_z                         0.877573                  166   7
  353                map_scatter                           0.100811                  166   7
  354              map_backward                          1.120025                    328   6
  355                map_gather                            0.079894                  164   7
  356                m_alltoallv_z                         0.991445                  164   7
  357                map_scatter                           0.045585                  164   7
  358        ggaall_grid                           2.583306                           33   3
  359        m_sumb_d                              0.034827                          168   3
  360        fewald                                0.001399                            2   3
  361          rsp                                   0.001287                          2   4
  362          rcp                                   0.000098                          2   4
  363        pothar                                0.001600                            1   3
  364          m_sumb_d                              0.000975                          1   4
  365        m_bcast_d                             0.003996                            1   3
  366      potlok_metagga                        0.000001                              1   2
  367      set_dd_magatom                        0.000001                              1   2
  368      set_dd_paw                            0.011983                              1   2
  369        set_rsgf_all                          0.000002                            1   3
  370        m_sumb_d                              0.011739                            7   3
  371      m_bcast_d                             0.000380                              2   2
 
 Flat profile
 ============
 
             routine name                   CPU           calls
 ---------------------------------------------------------------
 edwav                                6121.102815         560
 potlok                               1012.693321         562
 m_alltoall_d                          486.337854     1339520
 dfftw_execute                         441.628466      932163
 lincom                                440.939726        1687
 m_sumb_d                              358.436193      559907
 m_alltoallv_z                         302.421813      311844
 orth1                                 284.739688       85380
 choleski                              194.624804         561
 fftbas_plan_mpi                       193.140528      310721
 fft3d_mpi                             144.626678      310721
 ggaall_grid                           118.651696         595
 eddav                                  92.568308           5
 total_time                             82.560470           1
 fftwav_mpi                             75.887596      188825
 eccp                                   75.589393      155820
 map_scatter                            63.935434      311844
 racc0                                  63.024007       40920
 rpro1                                  57.913817       40220
 map_forward                            52.489883      419566
 map_gather                             42.334167      311844
 pw_charge                              29.165992       65685
 augmentation_charge                    22.327023         561
 vhamil                                 19.126993       41060
 eddiag                                 18.059341         287
 setdij_                                17.494040         589
 w1_dscal                               12.385996       38360
 m_bcast_z                              11.173608        2380
 orthch                                  9.435854         561
 redis_pw                                8.696426      161967
 ggemm                                   7.656080        3260
 fftext_mpi                              5.623012       79420
 redis_proj                              4.241117      130048
 lapack                                  3.815925        2560
 m_bcast_d                               3.444495        8246
 overl                                   2.531677       43890
 force_and_stress                        1.822685           1
 map_backward                            1.707825      201876
 kinhamil                                1.348038       41060
 soft_charge                             1.299033         561
 rpromu                                  1.280761         455
 elmin_all                               1.146752           1
 densta                                  1.069242         572
 fftbrc_mpi                              0.962186      310721
 rsp                                     0.761101        1125
 rpromu_gemm                             0.650041      104195
 depsum                                  0.636276         561
 rspher_all                              0.490852          14
 forloc                                  0.413146           1
 forhar                                  0.407245           1
 hamilt_local                            0.301835       38500
 set_dd_paw                              0.293546         563
 pothar                                  0.289896         562
 w1_copy                                 0.287345        7680
 stufak                                  0.262502           1
 set_charge                              0.134082         561
 apply_precond                           0.098009        1860
 overl1                                  0.092075        2560
 fft_gq                                  0.091609         561
 setup_precond                           0.062749         700
 rcp                                     0.057647        1125
 inisym                                  0.053703           1
 hamiltmu                                0.039864        2560
 rpro_isp                                0.039404          13
 raccmu_                                 0.031479        2560
 newband                                 0.030889        2565
 fewald                                  0.026757        1125
 strnlr                                  0.021367           1
 w1_projall                              0.010773        1860
 strehar                                 0.006902           1
 strelo                                  0.006272           1
 fornlr                                  0.005698           1
 strkin                                  0.005400           1
 redis_pw_all                            0.003799         560
 truncate_high_frequency_w1              0.003108        3260
 redis_pw_over_bands                     0.002245         561
 set_rsgf_all                            0.001219         563
 brgrid                                  0.000688           1
 potlok_metagga                          0.000634         562
 posmap                                  0.000272           2
 crpa_reader                             0.000241           1
 fordep                                  0.000227           1
 phaser                                  0.000221         292
 vectorpot                               0.000037           1
 proall                                  0.000025           1
 rotate_active_occupied_orbital          0.000024           1
 set_dd_magatom                          0.000008           2
 shift_bands_between_low_high            0.000002           1
 ---------------------------------------------------------------
  summed up times    10897.0819768906     
 
 Accumulative profile
 ====================
 
             routine name                   CPU           calls
 ---------------------------------------------------------------
 total_time                          10897.081977           1
 elmin_all                           10779.355764           1
 edwav                                8570.998207         560
 potlok                               1474.178482         562
 fft3d_mpi                            1243.246980      310721
 fftbrc_mpi                           1098.620302      310721
 fftbas_plan_mpi                      1097.658116      310721
 fftwav_mpi                            737.302063      188825
 orthch                                631.949897         561
 m_alltoall_d                          486.337854     1339520
 dfftw_execute                         441.628466      932163
 lincom                                440.939726        1687
 m_sumb_d                              358.436193      559907
 set_charge                            331.403297         561
 m_alltoallv_z                         302.421813      311844
 soft_charge                           300.609296         561
 map_forward                           290.880370      419566
 orth1                                 284.739688       85380
 redis_pw                              252.297982      161967
 redis_proj                            246.977416      130048
 fftext_mpi                            241.473377       79420
 eddiag                                199.349920         287
 choleski                              194.624804         561
 eddav                                 174.786342           5
 map_backward                          172.008752      201876
 hamilt_local                          136.252621       38500
 kinhamil                              126.057880       41060
 ggaall_grid                           118.651696         595
 eccp                                   86.693246      155820
 racc0                                  77.832819       40920
 rpro1                                  67.260236       40220
 map_scatter                            63.935434      311844
 map_gather                             42.334167      311844
 redis_pw_over_bands                    41.581930         561
 redis_pw_all                           41.579684         560
 augmentation_charge                    29.577858         561
 pw_charge                              29.165992       65685
 setdij_                                23.361551         589
 vhamil                                 19.126993       41060
 hamiltmu                               14.012569        2560
 force_and_stress                       13.610355           1
 w1_dscal                               12.385996       38360
 m_bcast_z                              11.173608        2380
 rpro_isp                                9.401259          13
 ggemm                                   7.656080        3260
 set_dd_paw                              7.265968         563
 strnlr                                  6.880518           1
 densta                                  5.062792         572
 raccmu_                                 4.738619        2560
 newband                                 4.252043        2565
 lapack                                  3.815925        2560
 m_bcast_d                               3.444495        8246
 w1_projall                              3.113761        1860
 fft_gq                                  2.882045         561
 overl                                   2.531677       43890
 fornlr                                  2.307768           1
 rpromu                                  2.216108         455
 depsum                                  1.082061         561
 pothar                                  0.934160         562
 fewald                                  0.878082        1125
 proall                                  0.763827           1
 rsp                                     0.761101        1125
 rpromu_gemm                             0.650041      104195
 rspher_all                              0.490852          14
 forloc                                  0.415211           1
 forhar                                  0.410126           1
 w1_copy                                 0.287345        7680
 stufak                                  0.262502           1
 fordep                                  0.222005           1
 apply_precond                           0.098009        1860
 overl1                                  0.092075        2560
 setup_precond                           0.090197         700
 rcp                                     0.057647        1125
 inisym                                  0.053975           1
 strehar                                 0.007969           1
 strelo                                  0.006776           1
 strkin                                  0.006043           1
 truncate_high_frequency_w1              0.003108        3260
 set_rsgf_all                            0.001219         563
 brgrid                                  0.000688           1
 potlok_metagga                          0.000634         562
 posmap                                  0.000272           2
 crpa_reader                             0.000241           1
 phaser                                  0.000221         292
 vectorpot                               0.000037           1
 rotate_active_occupied_orbital          0.000024           1
 set_dd_magatom                          0.000008           2
 shift_bands_between_low_high            0.000002           1
 ---------------------------------------------------------------
 
Profiling took   7.928681  2.557916  0.007301  0.006563 seconds
Profiling took   9.231683 seconds
