 vasp.6.3.2 27Jun22 (build Jan 03 2024 23:25:20) gamma-only                     
  
 executed on           IFC15_impi date 2024.06.05  03:31:44
 running  512 mpi-ranks, with    1 threads/rank
 distrk:  each k-point on  512 cores,    1 groups
 distr:  one band on NCORE=  32 cores,   16 groups


--------------------------------------------------------------------------------------------------------


 INCAR:
   ENCUT = 500.000000
   SIGMA = 0.010000
   EDIFF = 1.00e-05
   ALGO = A
   ISMEAR = 0
   NELM = 200
   NSW = 999
   NCORE = 32
   LCHARG = .TRUE.
   LWAVE = .TRUE.
   LREAL = Auto
   IBRION = 5
   POTIM = 0.015
   NFREE = 2
   ISYM = 0
   EDIFFG = -0.05
   GGA = BF
   LUSE_VDW = .TRUE.
   ZAB_VDW = -1.8867
   LBEEFENS = .TRUE.
   DIPOL = 0.5 0.5 0.65
   IDIPOL = 3
   LDIPOL = .TRUE.

 POTCAR:    PAW_PBE Au 04Oct2007                  
 POTCAR:    PAW_PBE O 08Apr2002                   
 POTCAR:    PAW_PBE Sr_sv 07Sep2000               
 POTCAR:    PAW_PBE Ti_sv 26Sep2005               
 POTCAR:    PAW_PBE H 15Jun2001                   
 -----------------------------------------------------------------------------
|                                                                             |
|               ----> ADVICE to this user running VASP <----                  |
|                                                                             |
|     You have switched on vdW-DFT.                                           |
|     This routine was written and supplied by Jiri Klimes. We recommend      |
|     that you carefully read and cite the following publications:            |
|       J. Klimes, D.R. Bowler, A. Michelides                                 |
|          J. Phys.: Cond Matt. 22 022201 (2010)                              |
|       J. Klimes, D.R. Bowler, A. Michelides                                 |
|          Phys. Rev. B. 83, 195131 (2011)                                    |
|     and references therein.                                                 |
|                                                                             |
 -----------------------------------------------------------------------------

 POTCAR:    PAW_PBE Au 04Oct2007                  
   SHA256 =  d0044ae04e2bdce24051b198fc5c053d722a5bc6fe3c3b100514a13fc5d2db88 Au/POTCAR             
   COPYR  = (c) Copyright 04Oct2007 Georg Kresse                                                    
   COPYR  = This file is part of the software VASP. Any use, copying, and all other rights are regul
   COPYR  = If you do not have a valid VASP license, you may not use, copy or distribute this file. 
   VRHFIN =Au: s1d10                                                                                
   LEXCH  = PE                                                                                      
   EATOM  =   926.0867 eV,   68.0654 Ry                                                             
                                                                                                    
   TITEL  = PAW_PBE Au 04Oct2007                                                                    
   LULTRA =        F    use ultrasoft PP ?                                                          
   IUNSCR =        1    unscreen: 0-lin 1-nonlin 2-no                                               
   RPACOR =    2.330    partial core radius                                                         
   POMASS =  196.966; ZVAL   =   11.000    mass and valenz                                          
   RCORE  =    2.500    outmost cutoff radius                                                       
   RWIGS  =    2.840; RWIGS  =    1.503    wigner-seitz radius (au A)                               
   ENMAX  =  229.943; ENMIN  =  172.457 eV                                                          
   ICORE  =        3    local potential                                                             
   LCOR   =        T    correct aug charges                                                         
   LPAW   =        T    paw PP                                                                      
   EAUG   =  356.670                                                                                
   DEXC   =    0.000                                                                                
   RMAX   =    2.562    core radius for proj-oper                                                   
   RAUG   =    1.300    factor for augmentation sphere                                              
   RDEP   =    2.598    radius for radial grids                                                     
   RDEPT  =    2.193    core radius for aug-charge                                                  
                                                                                                    
   Atomic configuration                                                                             
   16 entries                                                                                       
     n  l   j            E        occ.                                                              
     1  0  0.50    -80748.5001   2.0000                                                             
     2  0  0.50    -14244.7466   2.0000                                                             
     2  1  1.50    -12310.9591   6.0000                                                             
     3  0  0.50     -3362.1768   2.0000                                                             
     3  1  1.50     -2801.5463   6.0000                                                             
     3  2  2.50     -2203.8206  10.0000                                                             
     4  0  0.50      -729.8168   2.0000                                                             
     4  1  1.50      -546.0527   6.0000                                                             
     4  2  2.50      -325.7302  10.0000                                                             
     4  3  3.50       -81.1472  14.0000                                                             
     5  0  0.50      -108.3201   2.0000                                                             
     5  1  1.50       -59.7479   6.0000                                                             
     5  2  2.50        -6.8783  10.0000                                                             
     6  0  0.50        -5.7602   1.0000                                                             
     6  1  1.50        -6.8029   0.0000                                                             
     5  3  2.50        -1.3606   0.0000                                                             
   Description                                                                                      
     l       E           TYP  RCUT    TYP  RCUT                                                     
     2     -6.8782861     23  2.500                                                                 
     2     -8.2388687     23  2.500                                                                 
     0     -5.7601759     23  2.500                                                                 
     0     -0.8493231     23  2.500                                                                 
     1     -2.7211652     23  2.500                                                                 
     1     27.2116520     23  2.500                                                                 
     3     -1.3605826     23  2.500                                                                 
  local pseudopotential read in
  partial core-charges read in
  partial kinetic energy density read in
  atomic valenz-charges read in
  non local Contribution for L=           2  read in
    real space projection operators read in
  non local Contribution for L=           2  read in
    real space projection operators read in
  non local Contribution for L=           0  read in
    real space projection operators read in
  non local Contribution for L=           0  read in
    real space projection operators read in
  non local Contribution for L=           1  read in
    real space projection operators read in
  non local Contribution for L=           1  read in
    real space projection operators read in
    PAW grid and wavefunctions read in
 
   number of l-projection  operators is LMAX  =           6
   number of lm-projection operators is LMMAX =          18
 
 POTCAR:    PAW_PBE O 08Apr2002                   
   SHA256 =  818f92134a0a090dccd8ba1447fa70422a3b330e708bb4f08108d8ae51209ddf O/POTCAR              
   COPYR  = (c) Copyright 08Apr2002 Georg Kresse                                                    
   COPYR  = This file is part of the software VASP. Any use, copying, and all other rights are regul
   COPYR  = If you do not have a valid VASP license, you may not use, copy or distribute this file. 
   VRHFIN =O: s2p4                                                                                  
   LEXCH  = PE                                                                                      
   EATOM  =   432.3788 eV,   31.7789 Ry                                                             
                                                                                                    
   TITEL  = PAW_PBE O 08Apr2002                                                                     
   LULTRA =        F    use ultrasoft PP ?                                                          
   IUNSCR =        1    unscreen: 0-lin 1-nonlin 2-no                                               
   RPACOR =    1.200    partial core radius                                                         
   POMASS =   16.000; ZVAL   =    6.000    mass and valenz                                          
   RCORE  =    1.520    outmost cutoff radius                                                       
   RWIGS  =    1.550; RWIGS  =    0.820    wigner-seitz radius (au A)                               
   ENMAX  =  400.000; ENMIN  =  300.000 eV                                                          
   ICORE  =        2    local potential                                                             
   LCOR   =        T    correct aug charges                                                         
   LPAW   =        T    paw PP                                                                      
   EAUG   =  605.392                                                                                
   DEXC   =    0.000                                                                                
   RMAX   =    1.553    core radius for proj-oper                                                   
   RAUG   =    1.300    factor for augmentation sphere                                              
   RDEP   =    1.550    radius for radial grids                                                     
   RDEPT  =    1.329    core radius for aug-charge                                                  
                                                                                                    
   Atomic configuration                                                                             
    4 entries                                                                                       
     n  l   j            E        occ.                                                              
     1  0  0.50      -514.6923   2.0000                                                             
     2  0  0.50       -23.9615   2.0000                                                             
     2  1  0.50        -9.0305   4.0000                                                             
     3  2  1.50        -9.5241   0.0000                                                             
   Description                                                                                      
     l       E           TYP  RCUT    TYP  RCUT                                                     
     0    -23.9615318     23  1.200                                                                 
     0     -9.5240782     23  1.200                                                                 
     1     -9.0304911     23  1.520                                                                 
     1      8.1634956     23  1.520                                                                 
     2     -9.5240782      7  1.500                                                                 
  local pseudopotential read in
  partial core-charges read in
  partial kinetic energy density read in
  kinetic energy density of atom read in
  atomic valenz-charges read in
  non local Contribution for L=           0  read in
    real space projection operators read in
  non local Contribution for L=           0  read in
    real space projection operators read in
  non local Contribution for L=           1  read in
    real space projection operators read in
  non local Contribution for L=           1  read in
    real space projection operators read in
    PAW grid and wavefunctions read in
 
   number of l-projection  operators is LMAX  =           4
   number of lm-projection operators is LMMAX =           8
 
 POTCAR:    PAW_PBE Sr_sv 07Sep2000               
   SHA256 =  a8389d3481648516ee67182ee030b298d280b37e29cbbf2d8595f040d757c710 Sr_sv/POTCAR          
   COPYR  = (c) Copyright 07Sep2000 Georg Kresse                                                    
   COPYR  = This file is part of the software VASP. Any use, copying, and all other rights are regul
   COPYR  = If you do not have a valid VASP license, you may not use, copy or distribute this file. 
   VRHFIN =Sr: 4s4p5s                                                                               
   LEXCH  = PE                                                                                      
   EATOM  =   843.0319 eV,   61.9611 Ry                                                             
                                                                                                    
   TITEL  = PAW_PBE Sr_sv 07Sep2000                                                                 
   LULTRA =        F    use ultrasoft PP ?                                                          
   IUNSCR =        1    unscreen: 0-lin 1-nonlin 2-no                                               
   RPACOR =    2.200    partial core radius                                                         
   POMASS =   87.620; ZVAL   =   10.000    mass and valenz                                          
   RCORE  =    2.500    outmost cutoff radius                                                       
   RWIGS  =    4.040; RWIGS  =    2.138    wigner-seitz radius (au A)                               
   ENMAX  =  229.353; ENMIN  =  172.014 eV                                                          
   RCLOC  =    2.201    cutoff for local pot                                                        
   LCOR   =        T    correct aug charges                                                         
   LPAW   =        T    paw PP                                                                      
   EAUG   =  366.804                                                                                
   DEXC   =    0.000                                                                                
   RMAX   =    2.547    core radius for proj-oper                                                   
   RAUG   =    1.300    factor for augmentation sphere                                              
   RDEP   =    2.562    radius for radial grids                                                     
   RDEPT  =    2.128    core radius for aug-charge                                                  
                                                                                                    
   Atomic configuration                                                                             
   10 entries                                                                                       
     n  l   j            E        occ.                                                              
     1  0  0.50    -15934.8930   2.0000                                                             
     2  0  0.50     -2157.6250   2.0000                                                             
     2  1  1.50     -1917.0034   6.0000                                                             
     3  0  0.50      -333.7288   2.0000                                                             
     3  1  1.50      -256.0992   6.0000                                                             
     3  2  2.50      -127.9971  10.0000                                                             
     4  0  0.50       -40.8953   2.0000                                                             
     5  0  0.50        -3.5257   1.9990                                                             
     4  1  1.50       -22.8179   6.0000                                                             
     4  2  1.50        -1.2815   0.0010                                                             
   Description                                                                                      
     l       E           TYP  RCUT    TYP  RCUT                                                     
     0    -40.8953213     23  2.480                                                                 
     0     -3.5257161     23  2.480                                                                 
     1    -22.8178632     23  2.500                                                                 
     1    -24.1784458     23  2.500                                                                 
     2     -1.2814598     23  2.500                                                                 
     2      0.2279365     23  2.500                                                                 
  local pseudopotential read in
  partial core-charges read in
  partial kinetic energy density read in
  atomic valenz-charges read in
  non local Contribution for L=           0  read in
    real space projection operators read in
  non local Contribution for L=           0  read in
    real space projection operators read in
  non local Contribution for L=           1  read in
    real space projection operators read in
  non local Contribution for L=           1  read in
    real space projection operators read in
  non local Contribution for L=           2  read in
    real space projection operators read in
  non local Contribution for L=           2  read in
    real space projection operators read in
    PAW grid and wavefunctions read in
 
   number of l-projection  operators is LMAX  =           6
   number of lm-projection operators is LMMAX =          18
 
 POTCAR:    PAW_PBE Ti_sv 26Sep2005               
   SHA256 =  4d747badb5a5ea28d858fbac70885b3f8929d6fd9e5b0dbe1ecb9878dc164da1 Ti_sv/POTCAR          
   COPYR  = (c) Copyright 26Sep2005 Georg Kresse                                                    
   COPYR  = This file is part of the software VASP. Any use, copying, and all other rights are regul
   COPYR  = If you do not have a valid VASP license, you may not use, copy or distribute this file. 
   VRHFIN =Ti: 3p4s3d                                                                               
   LEXCH  = PE                                                                                      
   EATOM  =  1588.0892 eV,  116.7213 Ry                                                             
                                                                                                    
   TITEL  = PAW_PBE Ti_sv 26Sep2005                                                                 
   LULTRA =        F    use ultrasoft PP ?                                                          
   IUNSCR =        1    unscreen: 0-lin 1-nonlin 2-no                                               
   RPACOR =    2.000    partial core radius                                                         
   POMASS =   47.880; ZVAL   =   12.000    mass and valenz                                          
   RCORE  =    2.300    outmost cutoff radius                                                       
   RWIGS  =    2.300; RWIGS  =    1.217    wigner-seitz radius (au A)                               
   ENMAX  =  274.610; ENMIN  =  205.957 eV                                                          
   ICORE  =        3    local potential                                                             
   LCOR   =        T    correct aug charges                                                         
   LPAW   =        T    paw PP                                                                      
   EAUG   =  482.848                                                                                
   RMAX   =    2.348    core radius for proj-oper                                                   
   RAUG   =    1.300    factor for augmentation sphere                                              
   RDEP   =    2.381    radius for radial grids                                                     
   RDEPT  =    1.930    core radius for aug-charge                                                  
                                                                                                    
   Atomic configuration                                                                             
    8 entries                                                                                       
     n  l   j            E        occ.                                                              
     1  0  0.50     -4865.3608   2.0000                                                             
     2  0  0.50      -533.1368   2.0000                                                             
     2  1  1.50      -440.5031   6.0000                                                             
     3  0  0.50       -59.3186   2.0000                                                             
     4  0  0.50        -3.7291   1.0000                                                             
     3  1  1.50       -35.7012   6.0000                                                             
     3  2  2.50        -1.9157   3.0000                                                             
     4  3  2.50        -1.3606   0.0000                                                             
   Description                                                                                      
     l       E           TYP  RCUT    TYP  RCUT                                                     
     0    -59.3185931     23  1.800                                                                 
     0     -3.7290822     23  2.300                                                                 
     1    -35.7012045     23  2.300                                                                 
     1     -1.3605826     23  2.300                                                                 
     2     -1.9156920     23  2.300                                                                 
     2     -0.0236318     23  2.300                                                                 
     3     -1.3605826     23  2.300                                                                 
  local pseudopotential read in
  partial core-charges read in
  partial kinetic energy density read in
  atomic valenz-charges read in
  non local Contribution for L=           0  read in
    real space projection operators read in
  non local Contribution for L=           0  read in
    real space projection operators read in
  non local Contribution for L=           1  read in
    real space projection operators read in
  non local Contribution for L=           1  read in
    real space projection operators read in
  non local Contribution for L=           2  read in
    real space projection operators read in
  non local Contribution for L=           2  read in
    real space projection operators read in
    PAW grid and wavefunctions read in
 
   number of l-projection  operators is LMAX  =           6
   number of lm-projection operators is LMMAX =          18
 
 POTCAR:    PAW_PBE H 15Jun2001                   
   SHA256 =  030f79b5d3ab3cf0e668861823c8fb652ff669f3e15e46930bd03bfd63a607b6 H/POTCAR              
   COPYR  = (c) Copyright 15Jun2001 Georg Kresse                                                    
   COPYR  = This file is part of the software VASP. Any use, copying, and all other rights are regul
   COPYR  = If you do not have a valid VASP license, you may not use, copy or distribute this file. 
   VRHFIN =H: ultrasoft test                                                                        
   LEXCH  = PE                                                                                      
   EATOM  =    12.4884 eV,    0.9179 Ry                                                             
                                                                                                    
   TITEL  = PAW_PBE H 15Jun2001                                                                     
   LULTRA =        F    use ultrasoft PP ?                                                          
   IUNSCR =        0    unscreen: 0-lin 1-nonlin 2-no                                               
   RPACOR =    0.000    partial core radius                                                         
   POMASS =    1.000; ZVAL   =    1.000    mass and valenz                                          
   RCORE  =    1.100    outmost cutoff radius                                                       
   RWIGS  =    0.700; RWIGS  =    0.370    wigner-seitz radius (au A)                               
   ENMAX  =  250.000; ENMIN  =  200.000 eV                                                          
   RCLOC  =    0.701    cutoff for local pot                                                        
   LCOR   =        T    correct aug charges                                                         
   LPAW   =        T    paw PP                                                                      
   EAUG   =  400.000                                                                                
   RMAX   =    1.123    core radius for proj-oper                                                   
   RAUG   =    1.200    factor for augmentation sphere                                              
   RDEP   =    1.112    radius for radial grids                                                     
   RDEPT  =    0.926    core radius for aug-charge                                                  
                                                                                                    
   Atomic configuration                                                                             
    2 entries                                                                                       
     n  l   j            E        occ.                                                              
     1  0  0.50        -6.4927   1.0000                                                             
     2  1  0.50        -3.4015   0.0000                                                             
   Description                                                                                      
     l       E           TYP  RCUT    TYP  RCUT                                                     
     0     -6.4927494     23  1.100                                                                 
     0      6.8029130     23  1.100                                                                 
     1     -4.0817478     23  1.100                                                                 
  local pseudopotential read in
  atomic valenz-charges read in
  non local Contribution for L=           0  read in
    real space projection operators read in
  non local Contribution for L=           0  read in
    real space projection operators read in
  non local Contribution for L=           1  read in
    real space projection operators read in
    PAW grid and wavefunctions read in
 
   number of l-projection  operators is LMAX  =           3
   number of lm-projection operators is LMMAX =           5
 
 Optimization of the real space projectors (new method)

 maximal supplied QI-value         = 15.12
 optimisation between [QCUT,QGAM] = [ 11.34, 22.83] = [ 36.00,145.93] Ry 
 Optimized for a Real-space Cutoff    1.39 Angstroem

   l    n(q)    QCUT    max X(q) W(low)/X(q) W(high)/X(q)  e(spline) 
   2      9    11.338    60.898    0.39E-03    0.42E-03    0.21E-06
   2      9    11.338    58.894    0.40E-03    0.42E-03    0.22E-06
   0      9    11.338   109.617    0.13E-03    0.20E-04    0.13E-06
   0      9    11.338    75.026    0.13E-03    0.20E-04    0.13E-06
   1      9    11.338    16.344    0.33E-04    0.24E-03    0.18E-06
   1      9    11.338    10.160    0.26E-04    0.19E-03    0.15E-06
 Optimization of the real space projectors (new method)

 maximal supplied QI-value         = 24.76
 optimisation between [QCUT,QGAM] = [ 11.39, 22.77] = [ 36.31,145.25] Ry 
 Optimized for a Real-space Cutoff    1.00 Angstroem

   l    n(q)    QCUT    max X(q) W(low)/X(q) W(high)/X(q)  e(spline) 
   0      7    11.387    20.381    0.39E-03    0.13E-02    0.15E-06
   0      7    11.387    15.268    0.42E-03    0.14E-02    0.17E-06
   1      6    11.387     5.964    0.41E-03    0.11E-02    0.17E-06
   1      6    11.387     5.382    0.39E-03    0.87E-03    0.15E-06
 Optimization of the real space projectors (new method)

 maximal supplied QI-value         = 15.12
 optimisation between [QCUT,QGAM] = [ 11.34, 22.83] = [ 36.00,145.93] Ry 
 Optimized for a Real-space Cutoff    1.56 Angstroem

   l    n(q)    QCUT    max X(q) W(low)/X(q) W(high)/X(q)  e(spline) 
   0     11    11.338    11.565    0.26E-04    0.80E-05    0.70E-07
   0     11    11.338    10.214    0.41E-04    0.15E-04    0.15E-06
   1     10    11.338   189.983    0.18E-03    0.52E-04    0.42E-06
   1     10    11.338   193.105    0.19E-03    0.52E-04    0.42E-06
   2     10    11.338   115.941    0.22E-03    0.42E-03    0.43E-06
   2     10    11.338    76.444    0.21E-03    0.41E-03    0.42E-06
 Optimization of the real space projectors (new method)

 maximal supplied QI-value         = 16.25
 optimisation between [QCUT,QGAM] = [ 11.38, 22.75] = [ 36.24,144.96] Ry 
 Optimized for a Real-space Cutoff    1.27 Angstroem

   l    n(q)    QCUT    max X(q) W(low)/X(q) W(high)/X(q)  e(spline) 
   0      9    11.376    12.277    0.53E-04    0.25E-04    0.25E-07
   0      9    11.376    11.419    0.89E-04    0.67E-05    0.35E-07
   1      8    11.376     4.010    0.13E-03    0.11E-03    0.29E-07
   1      8    11.376     6.182    0.94E-04    0.19E-03    0.11E-06
   2      8    11.376    47.177    0.13E-03    0.88E-03    0.24E-06
   2      8    11.376    42.437    0.13E-03    0.86E-03    0.23E-06
 Optimization of the real space projectors (new method)

 maximal supplied QI-value         = 34.20
 optimisation between [QCUT,QGAM] = [ 11.29, 22.57] = [ 35.68,142.71] Ry 
 Optimized for a Real-space Cutoff    1.16 Angstroem

   l    n(q)    QCUT    max X(q) W(low)/X(q) W(high)/X(q)  e(spline) 
   0      8    11.287    19.460    0.40E-03    0.73E-03    0.16E-06
   0      8    11.287    12.209    0.38E-03    0.70E-03    0.15E-06
   1      7    11.287     4.655    0.22E-03    0.25E-04    0.22E-06
 -----------------------------------------------------------------------------
|                                                                             |
|               ----> ADVICE to this user running VASP <----                  |
|                                                                             |
|     You enforced a specific xc type in the INCAR file but a different       |
|     type was found in the POTCAR file.                                      |
|     I HOPE YOU KNOW WHAT YOU ARE DOING!                                     |
|                                                                             |
 -----------------------------------------------------------------------------

  PAW_PBE Au 04Oct2007                  :
 energy of atom  1       EATOM= -926.0867
 kinetic energy error for atom=    0.0042 (will be added to EATOM!!)
  PAW_PBE O 08Apr2002                   :
 energy of atom  2       EATOM= -432.3788
 kinetic energy error for atom=    0.0224 (will be added to EATOM!!)
  PAW_PBE Sr_sv 07Sep2000               :
 energy of atom  3       EATOM= -843.0319
 kinetic energy error for atom=    0.0012 (will be added to EATOM!!)
  PAW_PBE Ti_sv 26Sep2005               :
 energy of atom  4       EATOM=-1588.0892
 kinetic energy error for atom=    0.0046 (will be added to EATOM!!)
  PAW_PBE H 15Jun2001                   :
 energy of atom  5       EATOM=  -12.4884
 kinetic energy error for atom=    0.0020 (will be added to EATOM!!)
 
 
 POSCAR: Au O  Sr Ti H
  positions in cartesian coordinates
  No initial velocities read in
 exchange correlation table for  LEXCH =       17
   RHO(1)=    0.500       N(1)  =     2000
   RHO(2)=  100.500       N(2)  =     4000

 VTST: version 4.1, (05/19/21)

 CHAIN: initializing optimizer
 
 OPT: Using VASP Dynamics algorithm
 CHAIN: Read ICHAIN            0
 
 POSCAR: Au O  Sr Ti H
  positions in cartesian coordinates
  No initial velocities read in
 


--------------------------------------------------------------------------------------------------------


 ion  position               nearest neighbor table
   1  0.717  0.526  0.754-  15 2.72  16 2.72  14 2.78  44 2.83   2 2.84  29 2.97  46 3.02
   2  0.624  0.569  0.704- 264 2.08  15 2.82   1 2.84  46 2.87  48 2.88  16 2.91  12 2.93  36 3.05
                            11 3.30   5 3.52 380 3.70
   3  0.719  0.259  0.692- 294 2.07 253 2.08  32 2.65  43 2.78  27 2.83 401 3.04 370 4.02 371 4.05

   4  0.294  0.746  0.698- 310 2.06 266 2.06   9 2.78  23 2.82  50 3.08  42 3.24  45 3.54 372 4.21
                           368 4.21
   5  0.512  0.603  0.777-  26 2.68  48 2.75  13 2.84  12 2.91  47 2.93  39 2.94  16 3.03   6 3.14
                            49 3.36  31 3.47   2 3.52
   6  0.577  0.724  0.793-  18 2.73  36 2.73  17 2.78  47 2.81  13 2.99  48 3.14   5 3.14  16 3.43

   7  0.550  0.384  0.829-  10 2.76  33 2.80  29 2.86  20 2.86  31 2.96  34 2.98  12 3.05  41 3.39

   8  0.241  0.469  0.709- 309 2.11  19 2.68  24 2.81  45 2.83  40 2.97  35 3.09 378 4.15
   9  0.284  0.662  0.765-  45 2.69  50 2.75  30 2.76   4 2.78  24 2.81
  10  0.603  0.289  0.787-   7 2.76  41 2.79  32 2.79  43 2.80  27 2.80  25 3.09  34 3.26
  11  0.514  0.484  0.678- 279 2.11 247 2.16  26 2.70  12 2.78  49 2.89  34 2.91 389 3.13   2 3.30
                            46 3.34 375 3.55  37 3.60 386 4.04
  12  0.562  0.486  0.762-  11 2.78  34 2.80  49 2.85  29 2.86  31 2.88   5 2.91   2 2.93  46 2.98
                            16 3.00   7 3.05
  13  0.463  0.695  0.830-  50 2.81  30 2.84   5 2.84  47 2.85  39 2.90  18 2.93   6 2.99
  14  0.765  0.432  0.706- 254 2.01  44 2.72   1 2.78  46 2.79  43 2.87 363 3.73 370 4.24
  15  0.733  0.616  0.694- 292 2.09 250 2.11  36 2.67   1 2.72   2 2.82  28 3.24 380 3.41 365 3.72

  16  0.635  0.584  0.800-   1 2.72  47 2.77  36 2.78  31 2.82   2 2.91  12 3.00   5 3.03  29 3.24
                             6 3.43
  17  0.595  0.784  0.713- 257 2.09   6 2.78  28 2.78  18 2.93  48 2.94  36 3.10 379 4.18 384 4.35

  18  0.485  0.779  0.757-   6 2.73  23 2.81  50 2.85  42 2.90  17 2.93  13 2.93  48 3.34
  19  0.349  0.500  0.697- 291 2.11   8 2.68  49 2.89  37 2.89  24 2.90  40 2.94  45 3.00  26 3.03
                           368 4.14 369 4.26
  20  0.431  0.372  0.815-  33 2.77  21 2.80   7 2.86  49 2.91  41 2.93  40 2.98  38 3.03  34 3.17

  21  0.373  0.299  0.755-  37 2.76  35 2.78  20 2.80  40 2.83  41 2.86  22 2.86
  22  0.442  0.228  0.697- 302 2.01 289 2.15  41 2.74  25 2.78  21 2.86  37 3.59 376 3.87 367 4.36

  23  0.391  0.817  0.706- 290 2.07  42 2.77  50 2.81  18 2.81   4 2.82 372 3.66 384 4.11
  24  0.290  0.537  0.778-   9 2.81   8 2.81  38 2.81  45 2.89  40 2.89  30 2.90  19 2.90
  25  0.556  0.210  0.712- 311 2.13  22 2.78  41 2.83  27 2.86  32 2.87  10 3.09 376 3.95
  26  0.453  0.580  0.702- 291 2.11   5 2.68  11 2.70  42 2.73  49 2.86  48 2.88  19 3.03 386 3.62

  27  0.614  0.321  0.697- 263 2.04  43 2.76  10 2.80   3 2.83  46 2.84  25 2.86  34 2.86  32 3.48
                           370 3.57 375 4.22
  28  0.706  0.757  0.688- 293 2.05 250 2.05  36 2.63  17 2.78 400 3.13  15 3.24 379 3.80 380 4.18

  29  0.656  0.441  0.813-  44 2.85  12 2.86   7 2.86  31 2.87  43 2.90   1 2.97  16 3.24  46 3.48

  30  0.368  0.619  0.820-   9 2.76  39 2.78  13 2.84  38 2.84  24 2.90  50 2.96
  31  0.570  0.510  0.857-  33 2.77  16 2.82  29 2.87  12 2.88  47 2.89  39 2.92   7 2.96   5 3.47

  32  0.665  0.194  0.752-   3 2.65  10 2.79  25 2.87  27 3.48  43 3.51
  33  0.472  0.450  0.880-  31 2.77  20 2.77  39 2.79   7 2.80  38 2.82
  34  0.516  0.377  0.734-  12 2.80  41 2.81  49 2.86  27 2.86  11 2.91   7 2.98  37 3.10  20 3.17
                            10 3.26 375 4.19
  35  0.283  0.338  0.703- 267 2.06  21 2.78  40 2.81  37 2.90   8 3.09 369 3.53 378 4.09
  36  0.669  0.681  0.749-  28 2.63  15 2.67   6 2.73  16 2.78   2 3.05  17 3.10  48 3.32
  37  0.398  0.382  0.690- 303 2.03 289 2.13  21 2.76  19 2.89  35 2.90  40 3.00  49 3.05  34 3.10
                           369 3.38  22 3.59  11 3.60 375 3.77
  38  0.376  0.493  0.833-  24 2.81  33 2.82  49 2.84  30 2.84  40 2.85  39 2.88  20 3.03
  39  0.463  0.573  0.864-  30 2.78  33 2.79  47 2.83  38 2.88  13 2.90  31 2.92   5 2.94
  40  0.326  0.414  0.769-  35 2.81  21 2.83  38 2.85  24 2.89  19 2.94   8 2.97  20 2.98  37 3.00
                            49 3.10
  41  0.487  0.269  0.775-  22 2.74  10 2.79  34 2.81  25 2.83  21 2.86  20 2.93   7 3.39
  42  0.423  0.698  0.699- 256 2.03  26 2.73  23 2.77  50 2.78  18 2.90  48 2.95   4 3.24 386 4.04
                           368 4.10
  43  0.700  0.347  0.756-  27 2.76   3 2.78  10 2.80  44 2.82  14 2.87  29 2.90  46 3.04  32 3.51

  44  0.774  0.430  0.796-  14 2.72  43 2.82   1 2.83  29 2.85
  45  0.257  0.593  0.695- 265 2.03 310 2.11   9 2.69   8 2.83  24 2.89  19 3.00   4 3.54 368 3.57
                           373 3.71
  46  0.648  0.443  0.697- 279 2.19  14 2.79  27 2.84   2 2.87  12 2.98   1 3.02  43 3.04  11 3.34
                            29 3.48 370 3.50
  47  0.565  0.639  0.861-  16 2.77   6 2.81  39 2.83  13 2.85  31 2.89   5 2.93
  48  0.544  0.665  0.701- 280 2.11   5 2.75   2 2.88  26 2.88  17 2.94  42 2.95   6 3.14  36 3.32
                            18 3.34 386 3.48
  49  0.443  0.475  0.756-  38 2.84  12 2.85  26 2.86  34 2.86  19 2.89  11 2.89  20 2.91  37 3.05
                            40 3.10   5 3.36
  50  0.374  0.739  0.778-   9 2.75  42 2.78  13 2.81  23 2.81  18 2.85  30 2.96   4 3.08
  51  0.250  0.188  0.454- 448 1.97 418 2.12 319 2.74 360 2.80 342 2.82 327 2.85
  52  0.749  0.938  0.455- 417 1.95 444 2.00 350 2.82 339 2.84 322 2.85 332 2.88
  53  0.749  0.689  0.457- 432 1.98 446 2.03 325 2.78 362 2.83 348 2.85 316 2.88
  54  0.749  0.439  0.456- 422 2.00 458 2.00 323 2.70 347 2.82 349 2.85 359 2.85
  55  0.750  0.190  0.455- 445 1.98 423 2.11 324 2.75 335 2.80 358 2.84 346 2.84
  56  0.417  0.936  0.454- 424 1.99 440 2.01 357 2.77 345 2.79 329 2.87 320 2.92
  57  0.417  0.685  0.455- 414 1.91 443 2.04 356 2.77 344 2.78 321 2.84 331 2.91
  58  0.416  0.435  0.454- 415 1.96 442 2.01 343 2.77 355 2.77 333 2.84 318 2.85
  59  0.084  0.687  0.453- 439 1.97 413 2.08 352 2.76 340 2.80 330 2.82 336 2.94
  60  0.084  0.936  0.453- 436 1.99 412 2.11 353 2.76 341 2.77 338 2.90 326 2.90
  61  0.083  0.437  0.453- 438 1.97 421 2.11 361 2.76 351 2.78 328 2.80 317 2.93
  62  0.084  0.186  0.453- 437 1.97 433 2.12 360 2.75 385 2.78 327 2.88 337 2.91
  63  0.917  0.812  0.454- 434 1.98 411 2.12 362 2.76 341 2.80 339 2.80 336 2.87
  64  0.916  0.562  0.454- 435 1.98 410 2.11 349 2.78 316 2.79 340 2.80 317 2.88
  65  0.251  0.439  0.455- 449 1.98 420 2.06 318 2.70 343 2.81 351 2.85 328 2.85
  66  0.916  0.062  0.454- 455 1.98 430 2.09 358 2.79 385 2.80 332 2.86 338 2.88
  67  0.916  0.312  0.454- 456 1.97 429 2.09 359 2.79 361 2.80 335 2.82 337 2.88
  68  0.417  0.187  0.454- 441 1.98 416 2.07 354 2.78 342 2.79 334 2.81 319 2.88
  69  0.252  0.688  0.456- 419 1.99 450 2.03 321 2.76 344 2.79 352 2.86 330 2.89
  70  0.917  0.937  0.454- 455 1.98 411 2.11 339 2.79 341 2.79 338 2.87 332 2.89
  71  0.583  0.189  0.455- 452 1.98 426 2.09 334 2.72 324 2.78 354 2.83 346 2.85
  72  0.000  0.125  0.498- 433 1.97 430 1.98 385 2.74 338 2.80 337 2.81 315 3.39
  73  0.584  0.810  0.455- 454 1.98 431 2.11 325 2.72 331 2.75 350 2.84 357 2.85
  74  1.000  0.373  0.499- 429 1.94 421 1.95 361 2.75 337 2.75 317 2.86
  75  1.000  0.627  0.498- 413 1.94 410 1.95 340 2.72 336 2.77 317 2.83
  76  0.333  0.125  0.498- 416 1.96 418 2.01 342 2.73 319 2.75 320 2.78 367 3.48
  77  0.000  0.875  0.500- 412 1.96 411 1.98 338 2.78 341 2.78 336 2.79
  78  0.333  0.874  0.500- 424 1.97 425 2.00 321 2.74 345 2.78 320 2.84 372 3.10
  79  0.666  0.126  0.499- 426 1.96 423 2.01 324 2.73 346 2.76 322 2.80 371 3.38
  80  0.336  0.626  0.504- 414 1.93 419 2.08 368 2.74 321 2.80 318 2.82 344 2.91
  81  0.334  0.378  0.503- 415 1.94 420 2.08 318 2.70 369 2.71 343 2.88 319 2.91
  82  0.666  0.378  0.503- 428 1.94 422 2.06 323 2.71 370 2.73 347 2.89 324 2.92
  83  0.915  0.687  0.453- 434 1.97 410 2.10 316 2.75 340 2.80 362 2.80 336 2.93
  84  0.916  0.437  0.454- 435 1.98 429 2.10 359 2.78 349 2.79 361 2.80 317 2.90
  85  0.916  0.187  0.453- 456 1.98 430 2.10 358 2.76 385 2.79 335 2.79 337 2.91
  86  0.583  0.936  0.454- 451 2.00 431 2.06 357 2.78 350 2.79 329 2.87 322 2.88
  87  0.583  0.686  0.455- 427 1.91 454 2.02 356 2.78 348 2.80 325 2.84 331 2.86
  88  0.583  0.439  0.456- 453 2.00 428 2.02 333 2.70 323 2.78 355 2.84 347 2.86
  89  0.250  0.936  0.454- 425 1.94 447 2.01 345 2.78 353 2.78 320 2.89 326 2.92
  90  0.665  0.626  0.503- 427 1.93 432 2.06 380 2.72 325 2.81 323 2.82 348 2.88
  91  0.585  0.563  0.455- 427 1.99 453 2.01 333 2.77 348 2.79 323 2.79 356 2.83
  92  0.583  0.063  0.455- 451 2.00 426 2.03 354 2.80 346 2.81 322 2.85 329 2.86
  93  0.917  0.687  0.361- 434 1.97 340 2.79 316 2.79
  94  0.917  0.437  0.361- 435 1.97 361 2.79 359 2.79
  95  0.917  0.188  0.361- 456 1.97 385 2.79 358 2.79
  96  0.583  0.938  0.361- 451 1.97 357 2.79 350 2.79
  97  0.583  0.687  0.361- 454 1.97 356 2.79 348 2.79
  98  0.583  0.437  0.361- 453 1.97 355 2.79 347 2.79
  99  0.583  0.188  0.361- 452 1.97 354 2.79 346 2.79
 100  0.250  0.938  0.361- 447 1.97 353 2.79 345 2.79
 101  0.917  0.938  0.361- 455 1.97 341 2.79 339 2.79
 102  0.250  0.687  0.361- 450 1.97 352 2.79 344 2.79
 103  0.250  0.188  0.361- 448 1.97 360 2.79 342 2.79
 104  0.750  0.938  0.361- 444 1.97 350 2.79 339 2.79
 105  0.750  0.687  0.361- 446 1.97 348 2.79 316 2.79
 106  0.750  0.437  0.361- 458 1.97 347 2.79 359 2.79
 107  0.750  0.188  0.361- 445 1.97 346 2.79 358 2.79
 108  0.417  0.938  0.361- 440 1.97 345 2.79 357 2.79
 109  0.417  0.687  0.361- 443 1.97 344 2.79 356 2.79
 110  0.417  0.437  0.361- 442 1.97 343 2.79 355 2.79
 111  0.250  0.437  0.361- 449 1.97 351 2.79 343 2.79
 112  0.083  0.063  0.361- 436 1.97 385 2.79 360 2.79
 113  0.083  0.312  0.361- 437 1.97 361 2.79 351 2.79
 114  0.083  0.563  0.361- 438 1.97 352 2.79 340 2.79
 115  0.917  0.312  0.361- 456 1.97 361 2.79 359 2.79
 116  0.917  0.063  0.361- 455 1.97 385 2.79 358 2.79
 117  0.583  0.812  0.361- 454 1.97 357 2.79 350 2.79
 118  0.583  0.563  0.361- 453 1.97 356 2.79 348 2.79
 119  0.583  0.312  0.361- 452 1.97 355 2.79 347 2.79
 120  0.583  0.063  0.361- 451 1.97 354 2.79 346 2.79
 121  0.250  0.812  0.361- 450 1.97 353 2.79 345 2.79
 122  0.250  0.563  0.361- 449 1.97 352 2.79 344 2.79
 123  0.250  0.312  0.361- 448 1.97 351 2.79 343 2.79
 124  0.250  0.063  0.361- 447 1.97 360 2.79 342 2.79
 125  0.750  0.812  0.361- 446 1.97 350 2.79 339 2.79
 126  0.750  0.563  0.361- 458 1.97 348 2.79 316 2.79
 127  0.750  0.312  0.361- 445 1.97 347 2.79 359 2.79
 128  0.750  0.063  0.361- 444 1.97 346 2.79 358 2.79
 129  0.417  0.812  0.361- 443 1.97 345 2.79 357 2.79
 130  0.417  0.563  0.361- 442 1.97 344 2.79 356 2.79
 131  0.417  0.312  0.361- 441 1.97 343 2.79 355 2.79
 132  0.417  0.063  0.361- 440 1.97 342 2.79 354 2.79
 133  0.083  0.812  0.361- 439 1.97 353 2.79 341 2.79
 134  0.417  0.188  0.361- 441 1.97 342 2.79 354 2.79
 135  0.083  0.938  0.361- 436 1.97 353 2.79 341 2.79
 136  0.083  0.687  0.361- 439 1.97 352 2.79 340 2.79
 137  0.083  0.437  0.361- 438 1.97 361 2.79 351 2.79
 138  0.833  0.500  0.407- 458 1.97 435 1.97 316 2.79 359 2.79 349 2.88
 139  0.833  0.750  0.407- 446 1.97 434 1.97 339 2.79 316 2.79 362 2.87
 140  0.083  0.061  0.455- 436 1.98 433 2.12 326 2.81 360 2.83 385 2.83 338 2.84
 141  0.083  0.312  0.454- 437 1.98 421 2.10 351 2.80 361 2.81 337 2.85 327 2.87
 142  0.084  0.563  0.454- 438 1.98 413 2.10 328 2.75 352 2.79 340 2.81 317 2.91
 143  0.083  0.812  0.454- 439 1.99 412 2.08 330 2.78 353 2.80 341 2.80 336 2.88
 144  0.417  0.062  0.455- 416 1.96 440 2.00 354 2.82 342 2.83 329 2.84 320 2.84
 145  0.415  0.311  0.457- 415 1.92 441 2.04 334 2.81 319 2.82 343 2.84 355 2.88
 146  0.416  0.560  0.458- 414 1.97 442 2.02 333 2.73 318 2.74 344 2.88 356 2.90
 147  0.416  0.810  0.455- 443 1.97 424 2.09 321 2.73 331 2.79 345 2.84 357 2.85
 148  0.750  0.064  0.453- 444 1.99 423 2.02 346 2.76 358 2.78 322 2.90 332 2.93
 149  0.747  0.314  0.455- 422 2.00 445 2.02 347 2.74 324 2.81 359 2.83 335 2.93
 150  0.748  0.564  0.454- 432 1.99 458 2.01 348 2.74 323 2.76 316 2.80 349 2.93
 151  0.749  0.813  0.453- 446 1.97 417 2.09 350 2.75 339 2.79 325 2.82 362 2.89
 152  0.250  0.062  0.454- 447 1.98 418 2.10 360 2.80 342 2.81 320 2.85 326 2.86
 153  0.913  0.313  0.547- 429 1.85 409 2.21 335 2.68 337 2.77 363 2.85 381 3.36
 154  0.252  0.314  0.454- 420 1.97 448 2.01 343 2.74 319 2.77 351 2.82 327 2.95
 155  0.252  0.565  0.454- 419 1.99 449 2.01 344 2.74 318 2.77 352 2.80 328 2.92
 156  0.251  0.811  0.455- 450 1.99 425 2.07 321 2.75 330 2.83 345 2.83 353 2.85
 157  0.833  0.250  0.407- 445 1.97 456 1.97 359 2.79 358 2.79 335 2.89
 158  0.584  0.315  0.454- 428 1.95 452 2.02 347 2.76 355 2.79 334 2.86 324 2.87
 159  0.833  0.000  0.407- 444 1.97 455 1.97 358 2.79 339 2.79 332 2.99
 160  0.500  0.500  0.407- 453 1.97 442 1.97 355 2.79 356 2.79 333 2.80
 161  0.083  0.188  0.361- 437 1.97 385 2.79 360 2.79
 162  0.000  0.000  0.407- 455 1.97 436 1.97 385 2.79 341 2.79 338 2.95
 163  0.000  0.250  0.407- 456 1.97 437 1.97 361 2.79 385 2.79 337 2.95
 164  0.000  0.500  0.407- 435 1.97 438 1.97 340 2.79 361 2.79 317 3.00
 165  0.000  0.750  0.407- 434 1.97 439 1.97 341 2.79 340 2.79 336 2.99
 166  0.333  0.000  0.407- 440 1.97 447 1.97 342 2.79 345 2.79 320 2.97
 167  0.333  0.250  0.407- 441 1.97 448 1.97 343 2.79 342 2.79 319 2.88
 168  0.333  0.500  0.407- 442 1.97 449 1.97 343 2.79 344 2.79 318 2.82
 169  0.333  0.750  0.407- 443 1.97 450 1.97 345 2.79 344 2.79 321 2.84
 170  0.667  0.000  0.407- 444 1.97 451 1.97 346 2.79 350 2.79 322 2.96
 171  0.667  0.250  0.407- 445 1.97 452 1.97 347 2.79 346 2.79 324 2.88
 172  0.667  0.500  0.407- 458 1.97 453 1.97 347 2.79 348 2.79 323 2.81
 173  0.667  0.750  0.407- 446 1.97 454 1.97 350 2.79 348 2.79 325 2.86
 174  0.167  0.000  0.407- 447 1.97 436 1.97 360 2.79 353 2.79 326 2.97
 175  0.167  0.250  0.407- 448 1.97 437 1.97 351 2.79 360 2.79 327 2.97
 176  0.167  0.500  0.407- 449 1.97 438 1.97 351 2.79 352 2.79 328 2.85
 177  0.167  0.750  0.407- 450 1.97 439 1.97 353 2.79 352 2.79 330 2.89
 178  0.500  0.000  0.407- 451 1.97 440 1.97 354 2.79 357 2.79 329 2.96
 179  0.500  0.250  0.407- 452 1.97 441 1.97 355 2.79 354 2.79 334 2.85
 180  0.500  0.750  0.407- 454 1.97 443 1.97 357 2.79 356 2.79 331 2.91
 181  0.167  0.125  0.500- 418 1.96 433 1.99 326 2.76 327 2.77 360 2.79 377 3.53
 182  0.918  0.063  0.547- 430 1.85 387 2.20 338 2.70 332 2.71 315 3.09 383 3.29
 183  0.168  0.873  0.500- 425 1.93 412 2.02 330 2.72 353 2.78 326 2.87 374 3.51
 184  0.252  0.188  0.547- 418 1.87 395 2.13 319 2.64 327 2.73 367 3.15 377 3.28
 185  0.750  0.934  0.548- 417 1.83 402 2.27 332 2.77 322 2.78 379 2.93 364 3.16
 186  0.752  0.681  0.553- 432 1.96 400 1.97 380 2.65 365 2.83 362 2.96 325 3.01
 187  0.753  0.435  0.549- 422 1.92 399 2.06 370 2.74 349 2.82 323 2.86 363 2.92
 188  0.423  0.444  0.545- 408 1.88 415 2.06 333 2.61 318 2.84 375 2.87 369 3.13
 189  0.423  0.688  0.547- 414 1.95 398 2.00 331 2.67 386 2.76 321 2.88 368 2.93
 190  0.747  0.184  0.550- 423 1.94 401 1.95 324 2.76 335 2.90 371 2.99 383 3.25
 191  0.416  0.937  0.546- 424 1.85 396 2.25 320 2.71 329 2.72 372 2.89 384 3.06
 192  0.085  0.940  0.545- 412 1.87 406 2.06 326 2.64 338 2.68 374 3.27 366 3.39
 193  0.415  0.191  0.546- 397 1.85 416 2.03 319 2.72 334 2.73 376 3.11 367 3.27
 194  0.087  0.690  0.545- 413 1.86 405 2.21 330 2.62 336 2.73 373 2.79
 195  0.082  0.439  0.545- 421 1.85 404 2.21 317 2.65 328 2.68 378 3.09 381 3.40
 196  0.082  0.191  0.545- 433 1.85 403 2.20 327 2.63 337 2.64 315 3.15 377 3.32
 197  0.499  0.126  0.500- 416 1.98 426 1.99 334 2.73 354 2.78 329 2.82 376 3.20
 198  0.999  0.501  0.594- 457 1.95 404 1.95 317 2.63 381 2.97 382 2.98
 199  0.999  0.753  0.592- 405 1.94 407 1.96 336 2.57 366 2.81 382 3.24
 200  0.335  0.254  0.593- 397 1.89 395 2.07 369 2.67 319 2.71 367 3.08
 201  0.333  0.000  0.592- 396 2.01 394 2.04 320 2.59 372 2.72 367 2.74
 202  0.001  0.997  0.591- 406 1.96 387 2.02 338 2.58 366 2.90 315 2.90
 203  0.000  0.253  0.592- 409 1.95 403 2.00 337 2.58 381 2.87 315 2.93
 204  0.333  0.497  0.591- 408 1.85 390 2.16 318 2.69 369 2.75 368 2.85
 205  0.336  0.740  0.590- 398 1.93 391 2.05 368 2.59 321 2.68 372 3.12
 206  0.663  0.248  0.591- 392 1.89 401 2.14 324 2.63 370 2.78 371 2.83
 207  0.666  0.000  0.592- 393 2.01 402 2.02 322 2.59 379 2.70 371 2.83
 208  0.666  0.742  0.590- 388 1.95 400 2.05 380 2.58 325 2.64 379 3.15
 209  0.667  0.494  0.591- 389 1.81 399 2.13 323 2.71 370 2.72 380 2.96
 210  0.166  1.000  0.592- 394 1.99 406 1.99 326 2.58 377 2.83 374 2.97
 211  0.168  0.249  0.593- 395 1.93 403 2.04 327 2.61 378 2.77 377 2.93
 212  0.171  0.750  0.595- 391 1.87 405 2.16 373 2.76 330 2.76 374 2.79
 213  0.249  0.436  0.549- 390 1.94 420 1.98 369 2.65 318 2.81 328 2.84 378 3.04
 214  0.166  0.503  0.587- 390 1.83 404 2.05 328 2.57 373 2.81 378 2.98
 215  0.249  0.683  0.552- 391 1.96 419 1.97 368 2.74 373 2.88 330 2.90 321 2.93
 216  0.581  0.186  0.549- 426 1.93 392 1.99 334 2.74 324 2.82 376 2.94 371 3.06
 217  0.915  0.813  0.547- 411 1.84 407 2.18 362 2.68 336 2.71 364 3.23 366 3.26
 218  0.917  0.564  0.547- 410 1.84 457 2.22 317 2.68 349 2.72 365 2.86
 219  0.581  0.560  0.549- 389 1.89 427 2.09 386 2.69 333 2.75 380 2.83 323 2.86
 220  0.586  0.815  0.551- 431 1.92 388 2.07 325 2.76 331 2.81 379 2.93 384 3.03
 221  0.583  0.312  0.545- 428 1.89 392 2.11 334 2.73 324 2.76 375 2.77 370 2.88
 222  0.583  0.063  0.547- 426 1.84 393 2.21 329 2.72 322 2.72 376 2.95 371 3.08
 223  0.253  0.813  0.551- 391 1.83 425 2.08 321 2.79 372 2.87 330 2.89 374 3.13
 224  0.252  0.559  0.544- 419 1.91 390 2.04 318 2.63 328 2.78 368 2.88 373 3.18
 225  0.249  0.314  0.546- 420 1.85 395 2.30 369 2.65 327 2.73 319 2.73 378 3.04
 226  0.251  0.063  0.547- 418 1.84 394 2.23 320 2.69 326 2.73 367 3.04 377 3.19
 227  0.748  0.808  0.546- 400 1.83 417 2.03 325 2.67 362 2.75 379 3.15 364 3.32
 228  0.746  0.558  0.544- 432 1.95 399 1.98 323 2.61 349 2.78 380 2.85 365 3.22
 229  0.414  0.812  0.548- 398 1.95 424 1.96 321 2.72 331 2.77 372 2.94 384 3.10
 230  0.748  0.060  0.545- 423 1.83 402 2.21 322 2.64 332 2.68 371 3.16 383 3.39
 231  0.749  0.311  0.548- 422 1.97 401 2.00 370 2.67 324 2.75 335 2.82 363 3.01
 232  0.416  0.320  0.553- 397 1.96 415 1.98 375 2.66 369 2.73 334 2.99 319 2.99
 233  0.420  0.565  0.555- 408 1.90 414 2.13 386 2.66 368 2.71 333 2.92 318 3.05
 234  0.416  0.065  0.547- 416 1.84 396 2.25 320 2.74 329 2.76 376 2.94 367 3.10
 235  0.085  0.813  0.548- 412 1.84 405 2.19 330 2.69 336 2.76 374 3.09 366 3.28
 236  0.083  0.564  0.546- 413 1.84 404 2.21 317 2.70 328 2.74 373 2.82
 237  0.087  0.314  0.547- 421 1.84 403 2.22 327 2.69 337 2.79 378 2.87 381 3.36
 238  0.082  0.067  0.550- 433 1.84 406 2.23 326 2.80 338 2.81 315 2.95 377 3.08
 239  0.914  0.938  0.546- 411 1.84 387 2.20 332 2.64 338 2.73 364 3.21 366 3.34
 240  0.913  0.689  0.545- 410 1.84 407 2.23 362 2.63 336 2.71 365 2.83
 241  0.583  0.939  0.546- 431 1.84 393 2.24 322 2.67 329 2.68 379 2.97 384 3.07
 242  0.918  0.189  0.545- 430 1.85 409 2.18 337 2.67 335 2.69 315 3.14 383 3.35
 243  0.916  0.438  0.546- 429 1.85 457 2.24 349 2.68 317 2.69 363 2.94 381 3.36
 244  0.577  0.436  0.552- 389 1.95 428 2.05 375 2.63 333 2.75 370 2.95 323 3.01
 245  0.580  0.686  0.547- 427 1.92 388 2.13 386 2.65 331 2.71 380 2.82 325 2.85
 246  0.251  0.938  0.545- 425 1.83 394 2.22 320 2.68 326 2.73 372 2.93 374 3.30
 247  0.498  0.504  0.609- 408 2.10  11 2.16 389 2.25 386 2.73 375 3.00 333 3.26
 248  0.499  0.253  0.590- 397 1.99 392 2.03 334 2.65 375 2.65 376 2.96
 249  0.499  0.000  0.591- 396 2.00 393 2.01 329 2.57 376 2.76 384 2.80
 250  0.754  0.693  0.657-  28 2.05  15 2.11 400 2.40 365 3.00 380 3.19
 251  0.749  0.937  0.640- 402 1.80 364 2.48 379 2.53
 252  0.252  0.186  0.641- 395 1.74 367 2.51 377 2.58
 253  0.745  0.194  0.647- 401 1.98   3 2.08 371 2.67 383 2.73
 254  0.756  0.437  0.639- 399 1.97  14 2.01 363 2.60 370 2.81
 255  0.417  0.935  0.640- 396 1.79 384 2.53 372 2.58
 256  0.421  0.676  0.634-  42 2.03 398 2.03 386 2.56 368 2.63
 257  0.591  0.810  0.646- 388 1.94  17 2.09 379 2.64 384 2.84
 258  0.920  0.063  0.640- 387 1.80 383 2.50 315 2.51
 259  0.912  0.562  0.642- 457 1.79 382 2.46 365 2.54
 260  0.913  0.312  0.640- 409 1.80 381 2.51 363 2.51
 261  0.914  0.813  0.642- 407 1.79 364 2.49 366 2.50
 262  0.582  0.066  0.640- 393 1.79 371 2.51 376 2.52
 263  0.583  0.320  0.634- 392 1.96  27 2.04 375 2.53 370 2.67
 264  0.592  0.565  0.639- 389 1.97   2 2.08 380 2.63 386 2.83
 265  0.248  0.574  0.629- 390 1.99  45 2.03 373 2.54 368 2.55
 266  0.262  0.799  0.647- 391 1.96   4 2.06 372 2.79 374 2.93
 267  0.249  0.316  0.642- 395 1.94  35 2.06 378 2.59 369 2.66
 268  0.249  0.060  0.642- 394 1.79 367 2.50 377 2.51
 269  0.917  0.563  0.361- 435 1.97 340 2.79 316 2.79
 270  0.500  0.374  0.500- 415 1.97 428 2.00 355 2.78 333 2.80 334 2.82 375 2.86
 271  0.500  0.873  0.501- 424 1.98 431 1.99 331 2.69 357 2.81 329 2.82 384 3.26
 272  0.500  0.621  0.500- 414 1.98 427 1.98 333 2.71 356 2.79 386 2.82 331 2.94
 273  0.832  0.623  0.500- 432 1.90 410 2.05 349 2.75 316 2.79 362 2.87 365 3.10
 274  0.833  0.874  0.498- 417 1.95 411 2.01 362 2.73 339 2.73 332 2.84
 275  0.833  0.374  0.499- 422 1.90 429 2.04 359 2.74 335 2.81 349 2.82 363 3.17
 276  0.833  0.125  0.500- 423 1.96 430 2.01 335 2.76 358 2.78 332 2.78
 277  0.167  0.376  0.498- 420 1.90 421 2.03 351 2.72 328 2.76 327 2.86 378 3.30
 278  0.168  0.624  0.500- 419 1.90 413 2.06 328 2.78 352 2.79 330 2.84 373 3.05
 279  0.582  0.439  0.646- 389 2.10  11 2.11  46 2.19 375 2.86 370 3.02
 280  0.580  0.685  0.639- 388 1.87  48 2.11 386 2.62 380 2.78
 281  0.918  0.186  0.640- 409 1.79 383 2.48 315 2.55
 282  0.582  0.935  0.639- 393 1.80 384 2.49 379 2.51
 283  0.830  0.751  0.593- 400 1.86 407 2.09 362 2.71 365 2.79 364 2.90
 284  0.831  0.246  0.591- 401 1.84 409 2.11 335 2.64 363 2.87 383 2.87
 285  0.833  0.504  0.589- 399 1.83 457 2.06 349 2.59 365 2.79 363 2.95
 286  0.833  0.003  0.593- 402 1.99 387 2.02 332 2.59 383 2.82 364 2.93
 287  0.501  0.756  0.593- 388 1.99 398 2.01 331 2.68 384 2.74 386 2.93
 288  0.418  0.065  0.640- 396 1.80 367 2.51 376 2.54
 289  0.427  0.305  0.655-  37 2.13  22 2.15 397 2.31 375 2.92 369 3.40
 290  0.412  0.813  0.639- 398 1.94  23 2.07 372 2.60 384 2.68
 291  0.397  0.551  0.652-  19 2.11  26 2.11 408 2.16 368 2.79 386 3.48
 292  0.752  0.571  0.634- 399 1.92  15 2.09 365 2.60 380 2.68
 293  0.741  0.810  0.640- 400 1.97  28 2.05 379 2.59 364 2.70
 294  0.747  0.313  0.640- 401 2.00   3 2.07 370 2.62 363 2.73
 295  0.747  0.067  0.640- 402 1.80 371 2.48 383 2.48
 296  0.084  0.313  0.641- 403 1.81 381 2.48 378 2.51
 297  0.667  0.875  0.500- 431 1.97 417 2.00 325 2.74 350 2.78 322 2.80 379 3.23
 298  0.087  0.562  0.642- 404 1.80 382 2.48 373 2.55
 299  0.082  0.060  0.646- 459 0.96 406 2.01 377 2.58 315 2.60
 300  0.086  0.437  0.639- 404 1.80 378 2.51 381 2.53
 301  0.083  0.186  0.639- 403 1.78 377 2.51 315 2.52
 302  0.418  0.188  0.640- 397 2.00  22 2.01 376 2.63 367 2.69
 303  0.415  0.419  0.630-  37 2.03 408 2.07 375 2.53 369 2.59
 304  0.084  0.935  0.640- 406 1.75 374 2.50 366 2.51
 305  0.083  0.686  0.640- 405 1.80 382 2.45 373 2.51
 306  0.913  0.436  0.640- 457 1.80 381 2.52 363 2.52
 307  0.916  0.687  0.639- 407 1.80 382 2.46 365 2.50
 308  0.916  0.937  0.641- 387 1.80 364 2.48 366 2.50
 309  0.241  0.442  0.641- 390 1.90   8 2.11 378 2.61 369 2.92
 310  0.255  0.677  0.664-   4 2.06  45 2.11 368 3.03 373 3.14
 311  0.579  0.191  0.644- 392 1.90  25 2.13 376 2.67 371 2.71
 312  0.250  0.930  0.637- 394 1.81 374 2.47 372 2.50
 313  0.084  0.811  0.642- 405 1.79 374 2.48 366 2.53
 314  0.917  0.812  0.361- 434 1.97 341 2.79 339 2.79
 315  0.001  0.124  0.611- 258 2.51 301 2.52 281 2.55 299 2.60 202 2.90 203 2.93 238 2.95 182 3.09
                           242 3.14 196 3.15  72 3.39 409 3.41 387 3.42 403 3.42 406 3.51 433 3.68
 316  0.833  0.625  0.407-  83 2.75  64 2.79 273 2.79 126 2.79 105 2.79 269 2.79  93 2.79 138 2.79
                           139 2.79 150 2.80  53 2.88 458 3.42 446 3.42 435 3.42 434 3.42 432 3.45
 317  0.999  0.501  0.507- 198 2.63 195 2.65 218 2.68 243 2.69 236 2.70  75 2.83  74 2.86  64 2.88
                            84 2.90 142 2.91  61 2.93 164 3.00 410 3.38 413 3.40 429 3.41 421 3.42
 318  0.331  0.499  0.501- 224 2.63 204 2.69  81 2.70  65 2.70 146 2.74 155 2.77 213 2.81 168 2.82
                            80 2.82 188 2.84  58 2.85 233 3.05 408 3.35 449 3.41 419 3.42 415 3.44
 319  0.330  0.248  0.503- 184 2.64 200 2.71 193 2.72 225 2.73  51 2.74  76 2.75 154 2.77 145 2.82
                           167 2.88  68 2.88  81 2.91 232 2.99 397 3.32 418 3.35 420 3.42 448 3.44
 320  0.333  0.001  0.506- 201 2.59 246 2.68 226 2.69 191 2.71 234 2.74  76 2.78 144 2.84  78 2.84
                           152 2.85  89 2.89  56 2.92 166 2.97 416 3.34 425 3.38 418 3.39 424 3.41
 321  0.334  0.751  0.502- 205 2.68 229 2.72 147 2.73  78 2.74 156 2.75  69 2.76 223 2.79  80 2.80
                           169 2.84  57 2.84 189 2.88 215 2.93 391 3.37 398 3.40 414 3.41 424 3.42
 322  0.666  0.000  0.506- 207 2.59 230 2.64 241 2.67 222 2.72 185 2.78  79 2.80 297 2.80  52 2.85
                            92 2.85  86 2.88 148 2.90 170 2.96 426 3.37 417 3.38 423 3.38 431 3.39
 323  0.669  0.500  0.501- 228 2.61  54 2.70  82 2.71 209 2.71 150 2.76  88 2.78  91 2.79 172 2.81
                            90 2.82 187 2.86 219 2.86 244 3.01 389 3.34 458 3.41 422 3.41 432 3.42
 324  0.667  0.248  0.503- 206 2.63  79 2.73 231 2.75  55 2.75 221 2.76 190 2.76  71 2.78 149 2.81
                           216 2.82 158 2.87 171 2.88  82 2.92 426 3.41 401 3.42 428 3.43 423 3.43
 325  0.665  0.752  0.502- 208 2.64 227 2.67  73 2.72 297 2.74 220 2.76  53 2.78  90 2.81 151 2.82
                            87 2.84 245 2.85 173 2.86 186 3.01 400 3.35 431 3.38 427 3.39 454 3.45
 326  0.166  0.001  0.506- 210 2.58 192 2.64 246 2.73 226 2.73 181 2.76 238 2.80 140 2.81 152 2.86
                           183 2.87  60 2.90  89 2.92 174 2.97 425 3.37 418 3.39 433 3.39 412 3.45
 327  0.166  0.249  0.506- 211 2.61 196 2.63 237 2.69 225 2.73 184 2.73 181 2.77  51 2.85 277 2.86
                           141 2.87  62 2.88 154 2.95 175 2.97 420 3.37 433 3.39 418 3.40 421 3.46
 328  0.164  0.500  0.502- 214 2.57 195 2.68 236 2.74 142 2.75 277 2.76 224 2.78 278 2.78  61 2.80
                           213 2.84 176 2.85  65 2.85 155 2.92 390 3.33 421 3.39 413 3.42 419 3.42
 329  0.500  1.000  0.506- 249 2.57 241 2.68 191 2.72 222 2.72 234 2.76 197 2.82 271 2.82 144 2.84
                            92 2.86  86 2.87  56 2.87 178 2.96 424 3.38 416 3.38 431 3.40 426 3.40
 330  0.165  0.751  0.503- 194 2.62 235 2.69 183 2.72 212 2.76 143 2.78  59 2.82 156 2.83 278 2.84
                           223 2.89  69 2.89 177 2.89 215 2.90 391 3.34 412 3.36 413 3.43 419 3.45
 331  0.501  0.753  0.504- 189 2.67 287 2.68 271 2.69 245 2.71  73 2.75 229 2.77 147 2.79 220 2.81
                            87 2.86  57 2.91 180 2.91 272 2.94 431 3.37 398 3.37 424 3.42 427 3.42
 332  0.834  0.001  0.507- 286 2.59 239 2.64 230 2.68 182 2.71 185 2.77 276 2.78 274 2.84  66 2.86
                            52 2.88  70 2.89 148 2.93 159 2.99 417 3.36 423 3.36 430 3.40 411 3.41
 333  0.501  0.500  0.500- 188 2.61  88 2.70 272 2.71 146 2.73 219 2.75 244 2.75  91 2.77 160 2.80
                           270 2.80  58 2.84 233 2.92 247 3.26 453 3.41 428 3.43 442 3.44 415 3.45
 334  0.501  0.248  0.502- 248 2.65  71 2.72 197 2.73 221 2.73 193 2.73 216 2.74 145 2.81  68 2.81
                           270 2.82 179 2.85 158 2.86 232 2.99 397 3.37 426 3.39 428 3.42 452 3.45
 335  0.835  0.248  0.503- 284 2.64 153 2.68 242 2.69 276 2.76  85 2.79  55 2.80 275 2.81 231 2.82
                            67 2.82 157 2.89 190 2.90 149 2.93 401 3.35 430 3.37 429 3.44 422 3.44
 336  1.000  0.751  0.507- 199 2.57 217 2.71 240 2.71 194 2.73 235 2.76  75 2.77  77 2.79  63 2.87
                           143 2.88  83 2.93  59 2.94 165 2.99 410 3.39 413 3.39 412 3.39 411 3.40
 337  0.000  0.250  0.505- 203 2.58 196 2.64 242 2.67  74 2.75 153 2.77 237 2.79  72 2.81 141 2.85
                            67 2.88  85 2.91  62 2.91 163 2.95 429 3.38 421 3.39 433 3.41 430 3.42
 338  1.000  1.000  0.505- 202 2.58 192 2.68 182 2.70 239 2.73  77 2.78  72 2.80 238 2.81 140 2.84
                            70 2.87  66 2.88  60 2.90 162 2.95 411 3.40 412 3.41 430 3.42 433 3.42
 339  0.833  0.875  0.407- 274 2.73  70 2.79 125 2.79 104 2.79 314 2.79 101 2.79 139 2.79 159 2.79
                           151 2.79  63 2.80  52 2.84 446 3.42 434 3.42 444 3.42 455 3.42 417 3.48
 340  0.000  0.625  0.407-  75 2.72 269 2.79  93 2.79 114 2.79 136 2.79 164 2.79 165 2.79  83 2.80
                            59 2.80  64 2.80 142 2.81 435 3.42 434 3.42 438 3.42 439 3.42 413 3.53
 341  0.000  0.875  0.407-  60 2.77  77 2.78  70 2.79 314 2.79 133 2.79 101 2.79 135 2.79 165 2.79
                           162 2.79  63 2.80 143 2.80 434 3.42 439 3.42 455 3.42 436 3.42 412 3.56
 342  0.333  0.125  0.407-  76 2.73 132 2.79 134 2.79 124 2.79 103 2.79 166 2.79 167 2.79  68 2.79
                           152 2.81  51 2.82 144 2.83 440 3.42 441 3.42 447 3.42 448 3.42 416 3.47
 343  0.333  0.375  0.407- 154 2.74  58 2.77 110 2.79 131 2.79 111 2.79 123 2.79 167 2.79 168 2.79
                            65 2.81 145 2.84  81 2.88 441 3.42 442 3.42 448 3.42 449 3.42 415 3.43
 344  0.333  0.625  0.407- 155 2.74  57 2.78 130 2.79 109 2.79 122 2.79 102 2.79 168 2.79 169 2.79
                            69 2.79 146 2.88  80 2.91 442 3.42 443 3.42 449 3.42 450 3.42 414 3.45
 345  0.333  0.875  0.407-  78 2.78  89 2.78  56 2.79 129 2.79 121 2.79 108 2.79 100 2.79 169 2.79
                           166 2.79 156 2.83 147 2.84 443 3.42 450 3.42 440 3.42 447 3.42 425 3.49
 346  0.667  0.125  0.407-  79 2.76 148 2.76 128 2.79 107 2.79 120 2.79  99 2.79 170 2.79 171 2.79
                            92 2.81  55 2.84  71 2.85 444 3.42 445 3.42 451 3.42 452 3.42 426 3.54
 347  0.667  0.375  0.407- 149 2.74 158 2.76 106 2.79 127 2.79  98 2.79 119 2.79 171 2.79 172 2.79
                            54 2.82  88 2.86  82 2.89 445 3.42 458 3.42 453 3.42 452 3.42 428 3.47
 348  0.667  0.625  0.407- 150 2.74  91 2.79 126 2.79 105 2.79 118 2.79  97 2.79 172 2.79 173 2.79
                            87 2.80  53 2.85  90 2.88 458 3.42 446 3.42 453 3.42 454 3.42 427 3.43
 349  0.836  0.500  0.503- 285 2.59 243 2.68 218 2.72 273 2.75 228 2.78  64 2.78  84 2.79 275 2.82
                           187 2.82  54 2.85 138 2.88 150 2.93 399 3.36 422 3.41 432 3.41 429 3.41
 350  0.667  0.875  0.407- 151 2.75 297 2.78  86 2.79 125 2.79 104 2.79 117 2.79  96 2.79 173 2.79
                           170 2.79  52 2.82  73 2.84 446 3.42 454 3.42 444 3.42 451 3.42 417 3.50
 351  0.167  0.375  0.407- 277 2.72  61 2.78 111 2.79 137 2.79 123 2.79 113 2.79 176 2.79 175 2.79
                           141 2.80 154 2.82  65 2.85 448 3.42 449 3.42 437 3.42 438 3.42 420 3.44
 352  0.167  0.625  0.407-  59 2.76 142 2.79 278 2.79 122 2.79 102 2.79 114 2.79 136 2.79 176 2.79
                           177 2.79 155 2.80  69 2.86 449 3.42 450 3.42 438 3.42 439 3.42 419 3.46
 353  0.167  0.875  0.407-  60 2.76 183 2.78  89 2.78 121 2.79 133 2.79 100 2.79 135 2.79 177 2.79
                           174 2.79 143 2.80 156 2.85 450 3.42 439 3.42 447 3.42 436 3.42 425 3.47
 354  0.500  0.125  0.407-  68 2.78 197 2.78 120 2.79  99 2.79 132 2.79 134 2.79 178 2.79 179 2.79
                            92 2.80 144 2.82  71 2.83 451 3.42 452 3.42 440 3.42 441 3.42 416 3.50
 355  0.500  0.375  0.407-  58 2.77 270 2.78 158 2.79  98 2.79 119 2.79 110 2.79 131 2.79 179 2.79
                           160 2.79  88 2.84 145 2.88 452 3.42 453 3.42 441 3.42 442 3.42 415 3.44
 356  0.500  0.625  0.407-  57 2.77  87 2.78 118 2.79  97 2.79 130 2.79 109 2.79 160 2.79 180 2.79
                           272 2.79  91 2.83 146 2.90 453 3.42 454 3.42 442 3.42 443 3.42 414 3.44
 357  0.500  0.875  0.407-  56 2.77  86 2.78 117 2.79 129 2.79  96 2.79 108 2.79 180 2.79 178 2.79
                           271 2.81  73 2.85 147 2.85 454 3.42 443 3.42 451 3.42 440 3.42 424 3.52
 358  0.833  0.125  0.407-  85 2.76 148 2.78 276 2.78  66 2.79 128 2.79 107 2.79 116 2.79  95 2.79
                           159 2.79 157 2.79  55 2.84 444 3.42 445 3.42 455 3.42 456 3.42 423 3.54
 359  0.833  0.375  0.407- 275 2.74  84 2.78  67 2.79 106 2.79 127 2.79  94 2.79 115 2.79 157 2.79
                           138 2.79 149 2.83  54 2.85 445 3.42 458 3.42 456 3.42 435 3.42 422 3.45
 360  0.167  0.125  0.407-  62 2.75 181 2.79 124 2.79 103 2.79 112 2.79 161 2.79 174 2.79 175 2.79
                           152 2.80  51 2.80 140 2.83 447 3.42 448 3.42 436 3.42 437 3.42 418 3.57
 361  0.000  0.375  0.407-  74 2.75  61 2.76  94 2.79 115 2.79 137 2.79 113 2.79 163 2.79 164 2.79
                            84 2.80  67 2.80 141 2.81 435 3.42 456 3.42 438 3.42 437 3.42 429 3.54
 362  0.836  0.752  0.503- 240 2.63 217 2.68 283 2.71 274 2.73 227 2.75  63 2.76  83 2.80  53 2.83
                           139 2.87 273 2.87 151 2.89 186 2.96 400 3.31 411 3.36 410 3.43 434 3.45
 363  0.836  0.373  0.604- 260 2.51 306 2.52 254 2.60 294 2.73 153 2.85 284 2.87 187 2.92 243 2.94
                           285 2.95 231 3.01 275 3.17 409 3.39 401 3.43 457 3.44 399 3.47 429 3.53
 364  0.833  0.876  0.618- 308 2.48 251 2.48 261 2.49 293 2.70 283 2.90 286 2.93 185 3.16 239 3.21
                           217 3.23 227 3.32 387 3.44 402 3.44 400 3.45 407 3.47 411 3.89 366 3.94
 365  0.840  0.627  0.603- 307 2.50 259 2.54 292 2.60 285 2.79 283 2.79 240 2.83 186 2.83 218 2.86
                           250 3.00 273 3.10 228 3.22 407 3.33 457 3.37 399 3.41 410 3.45 400 3.52
 366  0.999  0.873  0.621- 261 2.50 308 2.50 304 2.51 313 2.53 199 2.81 202 2.90 217 3.26 235 3.28
                           239 3.34 407 3.37 406 3.39 192 3.39 405 3.40 387 3.47 364 3.94 411 3.94
 367  0.331  0.119  0.614- 268 2.50 252 2.51 288 2.51 302 2.69 201 2.74 226 3.04 200 3.08 234 3.10
                           184 3.15 193 3.27 394 3.35 396 3.36 395 3.44  76 3.48 397 3.57 418 3.76
 368  0.334  0.624  0.595- 265 2.55 205 2.59 256 2.63 233 2.71  80 2.74 215 2.74 291 2.79 204 2.85
                           224 2.88 189 2.93 310 3.03 408 3.37 398 3.42 414 3.44 419 3.45 391 3.50
 369  0.326  0.374  0.593- 303 2.59 213 2.65 225 2.65 267 2.66 200 2.67  81 2.71 232 2.73 204 2.75
                           309 2.92 188 3.13 420 3.29  37 3.38 289 3.40 395 3.40 390 3.41 408 3.43
 370  0.671  0.372  0.594- 294 2.62 263 2.67 231 2.67 209 2.72  82 2.73 187 2.74 206 2.78 254 2.81
                           221 2.88 244 2.95 279 3.02 422 3.35 401 3.40 428 3.44 389 3.45 392 3.46
 371  0.665  0.124  0.612- 295 2.48 262 2.51 253 2.67 311 2.71 206 2.83 207 2.83 190 2.99 216 3.06
                           222 3.08 230 3.16 392 3.38  79 3.38 393 3.39 402 3.40 401 3.49 426 3.75
 372  0.334  0.879  0.603- 312 2.50 255 2.58 290 2.60 201 2.72 266 2.79 223 2.87 191 2.89 246 2.93
                           229 2.94  78 3.10 205 3.12 394 3.33 396 3.34 391 3.47 398 3.48 424 3.56
 373  0.159  0.627  0.601- 305 2.51 265 2.54 298 2.55 212 2.76 194 2.79 214 2.81 236 2.82 215 2.88
                           278 3.05 310 3.14 224 3.18 405 3.33 404 3.38 413 3.42 390 3.49 391 3.53
 374  0.166  0.871  0.617- 312 2.47 313 2.48 304 2.50 212 2.79 266 2.93 210 2.97 235 3.09 223 3.13
                           192 3.27 246 3.30 391 3.39 406 3.39 405 3.40 394 3.46 183 3.51 412 3.85
 375  0.502  0.371  0.595- 263 2.53 303 2.53 244 2.63 248 2.65 232 2.66 221 2.77 270 2.86 279 2.86
                           188 2.87 289 2.92 247 3.00 392 3.38 428 3.39 397 3.43 415 3.48 408 3.53
 376  0.500  0.122  0.606- 262 2.52 288 2.54 302 2.63 311 2.67 249 2.76 216 2.94 234 2.94 222 2.95
                           248 2.96 193 3.11 197 3.20 393 3.33 396 3.36 392 3.44 397 3.51 426 3.63
 377  0.166  0.122  0.617- 301 2.51 268 2.51 299 2.58 252 2.58 210 2.83 211 2.93 238 3.08 226 3.19
                           184 3.28 196 3.32 395 3.41 394 3.42 403 3.48 406 3.52 181 3.53 433 3.86
 378  0.163  0.372  0.608- 296 2.51 300 2.51 267 2.59 309 2.61 211 2.77 237 2.87 214 2.98 213 3.04
                           225 3.04 195 3.09 277 3.30 403 3.33 390 3.41 395 3.46 404 3.47 421 3.61
 379  0.665  0.881  0.607- 282 2.51 251 2.53 293 2.59 257 2.64 207 2.70 220 2.93 185 2.93 241 2.97
                           208 3.15 227 3.15 297 3.23 393 3.32 402 3.36 388 3.50 400 3.56 431 3.60
 380  0.666  0.627  0.593- 208 2.58 264 2.63 186 2.65 292 2.68  90 2.72 280 2.78 245 2.82 219 2.83
                           228 2.85 209 2.96 250 3.19 389 3.32 388 3.37 427 3.40 432 3.40  15 3.41
 381  0.999  0.374  0.623- 296 2.48 260 2.51 306 2.52 300 2.53 203 2.87 198 2.97 243 3.36 237 3.36
                           153 3.36 195 3.40 409 3.43 457 3.47 403 3.47 404 3.48 363 3.89 378 3.92
 382  0.999  0.621  0.638- 305 2.45 307 2.46 259 2.46 298 2.48 198 2.98 199 3.24 457 3.46 404 3.48
                           405 3.60 407 3.64 365 3.92 373 3.94 317 4.76 336 4.88
 383  0.834  0.124  0.621- 295 2.48 281 2.48 258 2.50 253 2.73 286 2.82 284 2.87 190 3.25 182 3.29
                           242 3.35 230 3.39 402 3.42 387 3.44 401 3.45 409 3.48 315 3.96 430 3.98
 384  0.500  0.877  0.609- 282 2.49 255 2.53 290 2.68 287 2.74 249 2.80 257 2.84 220 3.03 191 3.06
                           241 3.07 229 3.10 271 3.26 393 3.39 396 3.39 388 3.48 398 3.48 431 3.69
 385  0.000  0.125  0.407-  72 2.74  62 2.78 116 2.79  95 2.79 112 2.79 161 2.79 162 2.79 163 2.79
                            85 2.79  66 2.80 140 2.83 455 3.42 456 3.42 436 3.42 437 3.42 430 3.55
 386  0.504  0.625  0.594- 256 2.56 280 2.62 245 2.65 233 2.66 219 2.69 247 2.73 189 2.76 272 2.82
                           264 2.83 287 2.93 427 3.37 388 3.38 389 3.44 414 3.46  48 3.48 398 3.48
 387  0.917  0.000  0.603- 258 1.80 308 1.80 202 2.02 286 2.02 239 2.20 182 2.20 315 3.42 383 3.44
                           364 3.44 366 3.47 332 3.50 338 3.53
 388  0.585  0.750  0.600- 280 1.87 257 1.94 208 1.95 287 1.99 220 2.07 245 2.13 380 3.37 386 3.38
                           384 3.48 331 3.49 325 3.50 379 3.50
 389  0.591  0.501  0.594- 209 1.81 219 1.89 244 1.95 264 1.97 279 2.10 247 2.25  11 3.13 380 3.32
                           323 3.34 386 3.44 370 3.45 333 3.51 375 3.58
 390  0.242  0.498  0.594- 214 1.83 309 1.90 213 1.94 265 1.99 224 2.04 204 2.16 328 3.33 378 3.41
                           369 3.41 373 3.49 318 3.49 368 3.56
 391  0.250  0.752  0.592- 223 1.83 212 1.87 266 1.96 215 1.96 205 2.05 330 3.34 321 3.37 374 3.39
                           372 3.47 368 3.50 373 3.53
 392  0.584  0.247  0.597- 206 1.89 311 1.90 263 1.96 216 1.99 248 2.03 221 2.11 371 3.38 375 3.38
                           324 3.44 376 3.44 370 3.46 334 3.46
 393  0.582  0.001  0.604- 262 1.79 282 1.80 249 2.01 207 2.01 222 2.21 241 2.24 379 3.32 376 3.33
                           384 3.39 371 3.39 329 3.55 322 3.56
 394  0.249  0.998  0.604- 268 1.79 312 1.81 210 1.99 201 2.04 246 2.22 226 2.23 372 3.33 367 3.35
                           377 3.42 374 3.46 326 3.53 320 3.56
 395  0.249  0.246  0.604- 252 1.74 211 1.93 267 1.94 200 2.07 184 2.13 225 2.30 369 3.40 377 3.41
                           367 3.44 378 3.46 327 3.52 319 3.59
 396  0.417  0.000  0.605- 255 1.79 288 1.80 249 2.00 201 2.01 191 2.25 234 2.25 372 3.34 367 3.36
                           376 3.36 384 3.39 320 3.56 329 3.57
 397  0.414  0.249  0.591- 193 1.85 200 1.89 232 1.96 248 1.99 302 2.00 289 2.31 319 3.32 334 3.37
                           375 3.43 369 3.49 376 3.51 367 3.57
 398  0.416  0.750  0.594- 205 1.93 290 1.94 229 1.95 189 2.00 287 2.01 256 2.03 331 3.37 321 3.40
                           368 3.42 386 3.48 384 3.48 372 3.48
 399  0.756  0.503  0.596- 285 1.83 292 1.92 254 1.97 228 1.98 187 2.06 209 2.13 349 3.36 365 3.41
                           363 3.47 380 3.49 323 3.52 370 3.55
 400  0.752  0.753  0.591- 227 1.83 283 1.86 186 1.97 293 1.97 208 2.05 250 2.40  28 3.13 362 3.31
                           325 3.35 364 3.45 380 3.47 365 3.52 379 3.56
 401  0.754  0.248  0.595- 284 1.84 190 1.95 253 1.98 294 2.00 231 2.00 206 2.14   3 3.04 335 3.35
                           370 3.40 324 3.42 363 3.43 383 3.45 371 3.49
 402  0.750  0.002  0.604- 295 1.80 251 1.80 286 1.99 207 2.02 230 2.21 185 2.27 379 3.36 371 3.40
                           383 3.42 364 3.44 332 3.54 322 3.57
 403  0.083  0.250  0.603- 301 1.78 296 1.81 203 2.00 211 2.04 196 2.20 237 2.22 378 3.33 315 3.42
                           381 3.47 377 3.48 327 3.52 337 3.53
 404  0.081  0.500  0.603- 300 1.80 298 1.80 198 1.95 214 2.05 195 2.21 236 2.21 373 3.38 317 3.47
                           378 3.47 381 3.48 382 3.48 328 3.60
 405  0.080  0.750  0.603- 313 1.79 305 1.80 199 1.94 212 2.16 235 2.19 194 2.21 373 3.33 366 3.40
                           374 3.40 336 3.47 382 3.60 330 3.60
 406  0.083  0.993  0.601- 304 1.75 202 1.96 210 1.99 299 2.01 192 2.06 238 2.23 366 3.39 374 3.39
                           326 3.46 338 3.47 315 3.51 377 3.52
 407  0.918  0.751  0.603- 261 1.79 307 1.80 199 1.96 283 2.09 217 2.18 240 2.23 365 3.33 366 3.37
                           364 3.47 336 3.49 362 3.59 382 3.64
 408  0.411  0.497  0.593- 204 1.85 188 1.88 233 1.90 303 2.07 247 2.10 291 2.16 318 3.35 368 3.37
                           369 3.43 333 3.50 375 3.53 386 3.60
 409  0.919  0.249  0.603- 281 1.79 260 1.80 203 1.95 284 2.11 242 2.18 153 2.21 363 3.39 315 3.41
                           381 3.43 383 3.48 337 3.49 335 3.58
 410  0.918  0.626  0.506- 218 1.84 240 1.84  75 1.95 273 2.05  83 2.10  64 2.11 317 3.38 336 3.39
                           349 3.42 362 3.43 365 3.45 340 3.54 316 3.59
 411  0.917  0.875  0.507- 239 1.84 217 1.84  77 1.98 274 2.01  70 2.11  63 2.12 362 3.36 338 3.40
                           336 3.40 332 3.41 341 3.58 339 3.58 364 3.89 366 3.94
 412  0.083  0.874  0.506- 235 1.84 192 1.87  77 1.96 183 2.02 143 2.08  60 2.11 330 3.36 336 3.39
                           338 3.41 326 3.45 341 3.56 353 3.58 374 3.85 366 3.97
 413  0.081  0.626  0.506- 236 1.84 194 1.86  75 1.94 278 2.06  59 2.08 142 2.10 336 3.39 317 3.40
                           373 3.42 328 3.42 330 3.43 340 3.53 352 3.58
 414  0.417  0.626  0.501-  57 1.91  80 1.93 189 1.95 146 1.97 272 1.98 233 2.13 321 3.41 356 3.44
                           368 3.44 344 3.45 333 3.45 331 3.46 386 3.46 318 3.49
 415  0.416  0.374  0.501- 145 1.92  81 1.94  58 1.96 270 1.97 232 1.98 188 2.06 343 3.43 318 3.44
                           355 3.44 333 3.45 334 3.46 375 3.48 319 3.48 369 3.49
 416  0.416  0.122  0.503- 234 1.84  76 1.96 144 1.96 197 1.98 193 2.03  68 2.07 320 3.34 329 3.38
                           334 3.46 319 3.47 342 3.47 354 3.50 376 3.69 367 3.90
 417  0.751  0.879  0.503- 185 1.83 274 1.95  52 1.95 297 2.00 227 2.03 151 2.09 332 3.36 322 3.38
                           325 3.47 362 3.48 339 3.48 350 3.50 379 3.72 364 3.96
 418  0.249  0.125  0.507- 226 1.84 184 1.87 181 1.96  76 2.01 152 2.10  51 2.12 319 3.35 326 3.39
                           320 3.39 327 3.40 360 3.57 342 3.59 367 3.76 377 3.86
 419  0.248  0.624  0.503- 278 1.90 224 1.91 215 1.97 155 1.99  69 1.99  80 2.08 318 3.42 328 3.42
                           368 3.45 330 3.45 352 3.46 321 3.48 344 3.51 373 3.63
 420  0.247  0.373  0.503- 225 1.85 277 1.90 154 1.97 213 1.98  65 2.06  81 2.08 369 3.29 327 3.37
                           319 3.42 351 3.44 328 3.45 318 3.46 343 3.53 378 3.72
 421  0.082  0.375  0.506- 237 1.84 195 1.85  74 1.95 277 2.03 141 2.10  61 2.11 337 3.39 328 3.39
                           317 3.42 327 3.46 361 3.54 351 3.59 378 3.61
 422  0.753  0.375  0.503- 275 1.90 187 1.92 231 1.97 149 2.00  54 2.00  82 2.06 370 3.35 349 3.41
                           323 3.41 335 3.44 359 3.45 324 3.49 347 3.52 363 3.63
 423  0.750  0.122  0.505- 230 1.83 190 1.94 276 1.96  79 2.01 148 2.02  55 2.11 332 3.36 322 3.38
                           324 3.43 335 3.45 358 3.54 346 3.55 371 3.79 383 4.01
 424  0.416  0.877  0.504- 191 1.85 229 1.96  78 1.97 271 1.98  56 1.99 147 2.09 329 3.38 320 3.41
                           331 3.42 321 3.42 345 3.51 357 3.52 372 3.56 384 3.73
 425  0.249  0.879  0.502- 246 1.83 183 1.93  89 1.94  78 2.00 156 2.07 223 2.08 326 3.37 320 3.38
                           353 3.47 330 3.48 321 3.48 345 3.49 372 3.62 374 3.95
 426  0.583  0.123  0.505- 222 1.84 216 1.93  79 1.96 197 1.99  92 2.03  71 2.09 322 3.37 334 3.39
                           329 3.40 324 3.41 354 3.53 346 3.54 376 3.63 371 3.75
 427  0.584  0.627  0.501-  87 1.91 245 1.92  90 1.93 272 1.98  91 1.99 219 2.09 386 3.37 325 3.39
                           380 3.40 331 3.42 348 3.43 356 3.44 333 3.45 323 3.48
 428  0.584  0.373  0.502- 221 1.89  82 1.94 158 1.95 270 2.00  88 2.02 244 2.05 375 3.39 334 3.42
                           324 3.43 333 3.43 370 3.44 323 3.46 347 3.47 355 3.48
 429  0.918  0.375  0.506- 153 1.85 243 1.85  74 1.94 275 2.04  67 2.09  84 2.10 337 3.38 317 3.41
                           349 3.41 335 3.44 363 3.53 361 3.54 359 3.58 381 4.01
 430  0.917  0.125  0.506- 182 1.85 242 1.85  72 1.98 276 2.01  66 2.09  85 2.10 335 3.37 332 3.40
                           338 3.42 337 3.42 385 3.55 358 3.57 315 3.74 383 3.98
 431  0.584  0.876  0.506- 241 1.84 220 1.92 297 1.97 271 1.99  86 2.06  73 2.11 331 3.37 325 3.38
                           322 3.39 329 3.40 350 3.55 357 3.56 379 3.60 384 3.69
 432  0.752  0.625  0.503- 273 1.90 228 1.95 186 1.96  53 1.98 150 1.99  90 2.06 380 3.40 349 3.41
                           323 3.42 316 3.45 362 3.46 325 3.51 348 3.51 365 3.66
[...]
  273            m_sumb_d                              0.413257                       42   5
  274          m_sumb_d                              0.000634                          7   4
  275        setdij_                               5.076880                          140   3
  276          m_sumb_d                              1.201608                        140   4
  277        set_dd_magatom                        0.000028                            7   3
  278        set_dd_paw                            0.085616                            7   3
  279          set_rsgf_all                          0.000011                          7   4
  280          m_sumb_d                              0.083376                         49   4
  281        strkin                                0.057576                            7   3
  282          m_sumb_d                              0.017644                          7   4
  283        strelo                                0.062143                            7   3
  284          m_sumb_d                              0.015802                         14   4
  285        strnlr                               67.206890                            7   3
  286          rspher_all                            2.243026                         63   4
  287          phaser                                0.000038                         63   4
  288          rpro_isp                             64.693310                         63   4
  289            fftwav_mpi                           53.705594                     8820   5
  290              fft3d_mpi                            46.190257                   8820   6
  291                fftbrc_mpi                           35.723483                 8820   7
  292                  fftbas_plan_mpi                      35.694609               8820   8
  293                    dfftw_execute                        16.939325            26460   9
  294                    map_forward                          13.085386            17640   9
  295                      map_gather                            0.994444           8820  10
  296                      m_alltoallv_z                         4.783517           8820  10
  297                      map_scatter                           2.506719           8820  10
  298            rpromu                               10.896836                     2205   5
  299              rpromu_gemm                           3.321928                 500535   6
  300              m_sumb_d                              1.543321                   8820   6
  301          m_sumb_d                              0.124602                          7   4
  302        m_sumb_d                              0.054225                           49   3
  303        fft3d_mpi                             4.669699                          497   3
  304          fftbrc_mpi                            4.463361                        497   4
  305            fftbas_plan_mpi                       4.461712                      497   5
  306              dfftw_execute                         0.634926                   1491   6
  307              map_forward                           1.881471                    490   6
  308                map_gather                            0.032197                  245   7
  309                m_alltoallv_z                         1.588416                  245   7
  310                map_scatter                           0.255604                  245   7
  311              map_backward                          1.589938                    504   6
  312                map_gather                            0.179832                  252   7
  313                m_alltoallv_z                         1.338830                  252   7
  314                map_scatter                           0.066173                  252   7
  315        ggaall_grid                           1.318421                            7   3
  316        forhar                                2.800569                            7   3
  317          m_sumb_d                              0.051719                          7   4
  318        strehar                               0.050659                            7   3
  319          m_sumb_d                              0.010813                          7   4
  320        m_bcast_d                             0.010531                           14   3
  321      potlok                               71.600144                             13   2
  322        fft3d_mpi                            25.744859                         2741   3
  323          fftbrc_mpi                           24.726816                       2741   4
  324            fftbas_plan_mpi                      24.717619                     2741   5
  325              dfftw_execute                         3.503667                   8223   6
  326              map_forward                           9.541433                   2754   6
  327                map_gather                            0.203784                 1390   7
  328                m_alltoallv_z                         7.807489                 1390   7
  329                map_scatter                           1.501456                 1390   7
  330              map_backward                          9.721680                   2728   6
  331                map_gather                            1.017001                 1364   7
  332                m_alltoallv_z                         8.317765                 1364   7
  333                map_scatter                           0.359557                 1364   7
  334        ggaall_grid                          18.885178                          237   3
  335        m_sumb_d                              0.477765                         1224   3
  336        fewald                                0.018181                           26   3
  337          rsp                                   0.016673                         26   4
  338          rcp                                   0.001261                         26   4
  339        pothar                                0.024277                           13   3
  340          m_sumb_d                              0.017123                         13   4
  341        m_bcast_d                             0.050116                           13   3
  342      potlok_metagga                        0.000081                             13   2
  343      set_dd_magatom                        0.000007                              7   2
  344      set_dd_paw                            0.160584                             13   2
  345        set_rsgf_all                          0.000026                           13   3
  346        m_sumb_d                              0.155578                           91   3
  347      m_sumb_d                             50.854502                           3518   2
  348      wavpre_noio                           1.627338                              6   2
  349        stufak                                1.547968                            6   3
  350      eddiag                              192.516082                              6   2
  351        overl                                 0.007947                            6   3
  352        redis_proj                            0.675156                           18   3
  353          m_alltoall_d                          0.668245                       2520   4
  354        fftwav_mpi                            5.792897                          840   3
  355          fft3d_mpi                             4.873506                        840   4
  356            fftbrc_mpi                            3.534297                      840   5
  357              fftbas_plan_mpi                       3.531547                    840   6
  358                dfftw_execute                         1.618134                 2520   7
  359                map_forward                           1.414709                 1680   7
  360                  map_gather                            0.134839                840   8
  361                  m_alltoallv_z                         0.461395                840   8
  362                  map_scatter                           0.245539                840   8
  363        hamilt_local                          4.053589                          840   3
  364          vhamil                                1.136714                        840   4
  365          kinhamil                              2.908931                        840   4
  366            fftext_mpi                            2.856879                      840   5
  367              fft3d_mpi                             2.776702                    840   6
  368                fftbrc_mpi                            2.317486                  840   7
  369                  fftbas_plan_mpi                       2.314802                840   8
  370                    dfftw_execute                         1.159302             2520   9
  371                    map_backward                          0.666134             1680   9
  372                      map_gather                            0.135653            840  10
  373                      m_alltoallv_z                         0.396670            840  10
  374                      map_scatter                           0.119788            840  10
  375        redis_pw                              1.628560                          846   3
  376          m_alltoall_d                          1.568647                       2520   4
  377        orth1                                 2.211722                          420   3
  378        m_sumb_d                              1.188457                            6   3
  379        shift_bands_between_low_high          0.000008                            6   3
  380        lincom                                1.767012                            6   3
 
 Flat profile
 ============
 
             routine name                   CPU           calls
 ---------------------------------------------------------------
 edwav                               11718.076967         739
 potlok                               1354.508167         752
 dfftw_execute                         706.672385     1261131
 lincom                                603.490041        2237
 m_alltoall_d                          587.436667     1771280
 m_alltoallv_z                         536.796561      421875
 m_sumb_d                              536.499956      739917
 orth1                                 504.561135      104650
 total_time                            478.877105           1
 fft3d_mpi                             395.737875      420377
 eddiag                                349.032171         384
 fftbas_plan_mpi                       311.799559      420377
 choleski                              252.673045         746
 fftwav_mpi                            247.992184      256831
 eccp                                  213.058534      206500
 ggaall_grid                           164.301075         983
 map_forward                           158.440834      571610
 map_scatter                           126.007909      421875
 racc0                                 102.835596       51520
 pw_charge                              96.350106       87291
 rpro1                                  80.651682       51520
 map_gather                             79.916920      421875
 vhamil                                 72.233193       53340
 w1_dscal                               52.159925       51520
 orthch                                 30.823227         746
 setdij_                                26.453207         935
 augmentation_charge                    24.123929         746
 force_and_stress                       12.600121           7
 m_bcast_z                              12.572756        2381
 redis_pw                               11.043401      209773
 rpromu                                  8.718652        3185
 fftext_mpi                              8.018017      104860
 redis_proj                              5.179891      162737
 rpromu_gemm                             4.786376      722995
 overl                                   3.217752       53015
 rspher_all                              3.216335          92
 m_bcast_d                               2.849138         782
 forloc                                  2.766834           7
 forhar                                  2.748850           7
 soft_charge                             2.654381         746
 elmin_all                               2.343527           7
 map_backward                            2.336069      269144
 kinhamil                                2.305057       53340
 stufak                                  1.808072           7
 densta                                  1.386269         747
 fftbrc_mpi                              1.347217      420377
 rsp                                     1.025835        1511
 depsum                                  0.832162         746
 hamilt_local                            0.463585       53340
 set_charge                              0.458654         746
 pothar                                  0.432247         752
 set_dd_paw                              0.406202         759
 fft_gq                                  0.201479         746
 rpro_isp                                0.152487          91
 strnlr                                  0.145914           7
 fewald                                  0.088392        1511
 wavpre_noio                             0.079370           6
 rcp                                     0.075597        1511
 strelo                                  0.046341           7
 strkin                                  0.039933           7
 strehar                                 0.039847           7
 fornlr                                  0.039729           7
 redis_pw_all                            0.008733         739
 redis_pw_over_bands                     0.002846         752
 potlok_metagga                          0.002730         752
 fordep                                  0.001991           7
 set_rsgf_all                            0.001474         759
 brgrid                                  0.000792           1
 phaser                                  0.000341         459
 crpa_reader                             0.000265           1
 rotate_active_occupied_orbital          0.000105           7
 proall                                  0.000102           7
 set_dd_magatom                          0.000036          14
 vectorpot                               0.000025           1
 shift_bands_between_low_high            0.000022          13
 ---------------------------------------------------------------
  summed up times    19907.9559013844     
 
 Accumulative profile
 ====================
 
             routine name                   CPU           calls
 ---------------------------------------------------------------
 total_time                          19857.073555           1
 elmin_all                           18903.349472           7
 edwav                               15652.944345         739
 fft3d_mpi                            2268.172983      420377
 potlok                               2057.835737         752
 fftbrc_mpi                           1872.435108      420377
 fftbas_plan_mpi                      1871.087891      420377
 fftwav_mpi                           1621.286512      256831
 orthch                                884.185829         746
 eddiag                                758.600306         384
 dfftw_execute                         706.672385     1261131
 set_charge                            657.346079         746
 map_forward                           625.484555      571610
 soft_charge                           620.195853         746
 lincom                                603.490041        2237
 m_alltoall_d                          587.436667     1771280
 m_alltoallv_z                         536.796561      421875
 m_sumb_d                              536.499956      739917
 orth1                                 504.561135      104650
 fftext_mpi                            357.126143      104860
 redis_pw                              334.808928      209773
 map_backward                          278.013739      269144
 redis_proj                            268.851032      162737
 hamilt_local                          255.915245       53340
 choleski                              252.673045         746
 eccp                                  226.832483      206500
 kinhamil                              183.218467       53340
 ggaall_grid                           164.301075         983
 racc0                                 128.211156       51520
 map_scatter                           126.007909      421875
 force_and_stress                      120.815666           7
 pw_charge                              96.350106       87291
 rpro_isp                               93.422311          91
 rpro1                                  92.557518       51520
 map_gather                             79.916920      421875
 vhamil                                 72.233193       53340
 strnlr                                 67.206890           7
 w1_dscal                               52.159925       51520
 redis_pw_over_bands                    47.240864         752
 redis_pw_all                           47.238018         739
 setdij_                                35.478628         935
 augmentation_charge                    35.082262         746
 fornlr                                 22.446895           7
 rpromu                                 15.703611        3185
 m_bcast_z                              12.572756        2381
 set_dd_paw                              9.842475         759
 proall                                  7.246426           7
 densta                                  5.532533         747
 rpromu_gemm                             4.786376      722995
 fft_gq                                  4.594376         746
 overl                                   3.217752       53015
 rspher_all                              3.216335          92
 m_bcast_d                               2.849138         782
 forhar                                  2.800569           7
 forloc                                  2.796705           7
 stufak                                  1.808072           7
 wavpre_noio                             1.627338           6
 depsum                                  1.609311         746
 fordep                                  1.578708           7
 fewald                                  1.418601        1511
 pothar                                  1.397295         752
 rsp                                     1.025835        1511
 rcp                                     0.075597        1511
 strelo                                  0.062143           7
 strkin                                  0.057576           7
 strehar                                 0.050659           7
 potlok_metagga                          0.002730         752
 set_rsgf_all                            0.001474         759
 brgrid                                  0.000792           1
 phaser                                  0.000341         459
 crpa_reader                             0.000265           1
 rotate_active_occupied_orbital          0.000105           7
 set_dd_magatom                          0.000036          14
 vectorpot                               0.000025           1
 shift_bands_between_low_high            0.000022          13
 ---------------------------------------------------------------
 
Profiling took  11.753034  3.718915  0.011516  0.010849 seconds
Profiling took  13.714046 seconds
