 vasp.6.3.2 27Jun22 (build Jan 03 2024 23:25:20) gamma-only                     
  
 executed on           IFC15_impi date 2024.06.05  05:43:54
 running  512 mpi-ranks, with    1 threads/rank
 distrk:  each k-point on  512 cores,    1 groups
 distr:  one band on NCORE=  32 cores,   16 groups


--------------------------------------------------------------------------------------------------------


 INCAR:
   ENCUT = 500.000000
   SIGMA = 0.010000
   EDIFF = 1.00e-05
   ALGO = A
   ISMEAR = 0
   NELM = 200
   NSW = 999
   NCORE = 32
   LCHARG = .TRUE.
   LWAVE = .TRUE.
   LREAL = Auto
   IBRION = 5
   POTIM = 0.015
   NFREE = 2
   ISYM = 0
   EDIFFG = -0.05
   GGA = BF
   LUSE_VDW = .TRUE.
   ZAB_VDW = -1.8867
   LBEEFENS = .TRUE.
   DIPOL = 0.5 0.5 0.65
   IDIPOL = 3
   LDIPOL = .TRUE.

 POTCAR:    PAW_PBE Au 04Oct2007                  
 POTCAR:    PAW_PBE O 08Apr2002                   
 POTCAR:    PAW_PBE Sr_sv 07Sep2000               
 POTCAR:    PAW_PBE Ti_sv 26Sep2005               
 POTCAR:    PAW_PBE H 15Jun2001                   
 -----------------------------------------------------------------------------
|                                                                             |
|               ----> ADVICE to this user running VASP <----                  |
|                                                                             |
|     You have switched on vdW-DFT.                                           |
|     This routine was written and supplied by Jiri Klimes. We recommend      |
|     that you carefully read and cite the following publications:            |
|       J. Klimes, D.R. Bowler, A. Michelides                                 |
|          J. Phys.: Cond Matt. 22 022201 (2010)                              |
|       J. Klimes, D.R. Bowler, A. Michelides                                 |
|          Phys. Rev. B. 83, 195131 (2011)                                    |
|     and references therein.                                                 |
|                                                                             |
 -----------------------------------------------------------------------------

 POTCAR:    PAW_PBE Au 04Oct2007                  
   SHA256 =  d0044ae04e2bdce24051b198fc5c053d722a5bc6fe3c3b100514a13fc5d2db88 Au/POTCAR             
   COPYR  = (c) Copyright 04Oct2007 Georg Kresse                                                    
   COPYR  = This file is part of the software VASP. Any use, copying, and all other rights are regul
   COPYR  = If you do not have a valid VASP license, you may not use, copy or distribute this file. 
   VRHFIN =Au: s1d10                                                                                
   LEXCH  = PE                                                                                      
   EATOM  =   926.0867 eV,   68.0654 Ry                                                             
                                                                                                    
   TITEL  = PAW_PBE Au 04Oct2007                                                                    
   LULTRA =        F    use ultrasoft PP ?                                                          
   IUNSCR =        1    unscreen: 0-lin 1-nonlin 2-no                                               
   RPACOR =    2.330    partial core radius                                                         
   POMASS =  196.966; ZVAL   =   11.000    mass and valenz                                          
   RCORE  =    2.500    outmost cutoff radius                                                       
   RWIGS  =    2.840; RWIGS  =    1.503    wigner-seitz radius (au A)                               
   ENMAX  =  229.943; ENMIN  =  172.457 eV                                                          
   ICORE  =        3    local potential                                                             
   LCOR   =        T    correct aug charges                                                         
   LPAW   =        T    paw PP                                                                      
   EAUG   =  356.670                                                                                
   DEXC   =    0.000                                                                                
   RMAX   =    2.562    core radius for proj-oper                                                   
   RAUG   =    1.300    factor for augmentation sphere                                              
   RDEP   =    2.598    radius for radial grids                                                     
   RDEPT  =    2.193    core radius for aug-charge                                                  
                                                                                                    
   Atomic configuration                                                                             
   16 entries                                                                                       
     n  l   j            E        occ.                                                              
     1  0  0.50    -80748.5001   2.0000                                                             
     2  0  0.50    -14244.7466   2.0000                                                             
     2  1  1.50    -12310.9591   6.0000                                                             
     3  0  0.50     -3362.1768   2.0000                                                             
     3  1  1.50     -2801.5463   6.0000                                                             
     3  2  2.50     -2203.8206  10.0000                                                             
     4  0  0.50      -729.8168   2.0000                                                             
     4  1  1.50      -546.0527   6.0000                                                             
     4  2  2.50      -325.7302  10.0000                                                             
     4  3  3.50       -81.1472  14.0000                                                             
     5  0  0.50      -108.3201   2.0000                                                             
     5  1  1.50       -59.7479   6.0000                                                             
     5  2  2.50        -6.8783  10.0000                                                             
     6  0  0.50        -5.7602   1.0000                                                             
     6  1  1.50        -6.8029   0.0000                                                             
     5  3  2.50        -1.3606   0.0000                                                             
   Description                                                                                      
     l       E           TYP  RCUT    TYP  RCUT                                                     
     2     -6.8782861     23  2.500                                                                 
     2     -8.2388687     23  2.500                                                                 
     0     -5.7601759     23  2.500                                                                 
     0     -0.8493231     23  2.500                                                                 
     1     -2.7211652     23  2.500                                                                 
     1     27.2116520     23  2.500                                                                 
     3     -1.3605826     23  2.500                                                                 
  local pseudopotential read in
  partial core-charges read in
  partial kinetic energy density read in
  atomic valenz-charges read in
  non local Contribution for L=           2  read in
    real space projection operators read in
  non local Contribution for L=           2  read in
    real space projection operators read in
  non local Contribution for L=           0  read in
    real space projection operators read in
  non local Contribution for L=           0  read in
    real space projection operators read in
  non local Contribution for L=           1  read in
    real space projection operators read in
  non local Contribution for L=           1  read in
    real space projection operators read in
    PAW grid and wavefunctions read in
 
   number of l-projection  operators is LMAX  =           6
   number of lm-projection operators is LMMAX =          18
 
 POTCAR:    PAW_PBE O 08Apr2002                   
   SHA256 =  818f92134a0a090dccd8ba1447fa70422a3b330e708bb4f08108d8ae51209ddf O/POTCAR              
   COPYR  = (c) Copyright 08Apr2002 Georg Kresse                                                    
   COPYR  = This file is part of the software VASP. Any use, copying, and all other rights are regul
   COPYR  = If you do not have a valid VASP license, you may not use, copy or distribute this file. 
   VRHFIN =O: s2p4                                                                                  
   LEXCH  = PE                                                                                      
   EATOM  =   432.3788 eV,   31.7789 Ry                                                             
                                                                                                    
   TITEL  = PAW_PBE O 08Apr2002                                                                     
   LULTRA =        F    use ultrasoft PP ?                                                          
   IUNSCR =        1    unscreen: 0-lin 1-nonlin 2-no                                               
   RPACOR =    1.200    partial core radius                                                         
   POMASS =   16.000; ZVAL   =    6.000    mass and valenz                                          
   RCORE  =    1.520    outmost cutoff radius                                                       
   RWIGS  =    1.550; RWIGS  =    0.820    wigner-seitz radius (au A)                               
   ENMAX  =  400.000; ENMIN  =  300.000 eV                                                          
   ICORE  =        2    local potential                                                             
   LCOR   =        T    correct aug charges                                                         
   LPAW   =        T    paw PP                                                                      
   EAUG   =  605.392                                                                                
   DEXC   =    0.000                                                                                
   RMAX   =    1.553    core radius for proj-oper                                                   
   RAUG   =    1.300    factor for augmentation sphere                                              
   RDEP   =    1.550    radius for radial grids                                                     
   RDEPT  =    1.329    core radius for aug-charge                                                  
                                                                                                    
   Atomic configuration                                                                             
    4 entries                                                                                       
     n  l   j            E        occ.                                                              
     1  0  0.50      -514.6923   2.0000                                                             
     2  0  0.50       -23.9615   2.0000                                                             
     2  1  0.50        -9.0305   4.0000                                                             
     3  2  1.50        -9.5241   0.0000                                                             
   Description                                                                                      
     l       E           TYP  RCUT    TYP  RCUT                                                     
     0    -23.9615318     23  1.200                                                                 
     0     -9.5240782     23  1.200                                                                 
     1     -9.0304911     23  1.520                                                                 
     1      8.1634956     23  1.520                                                                 
     2     -9.5240782      7  1.500                                                                 
  local pseudopotential read in
  partial core-charges read in
  partial kinetic energy density read in
  kinetic energy density of atom read in
  atomic valenz-charges read in
  non local Contribution for L=           0  read in
    real space projection operators read in
  non local Contribution for L=           0  read in
    real space projection operators read in
  non local Contribution for L=           1  read in
    real space projection operators read in
  non local Contribution for L=           1  read in
    real space projection operators read in
    PAW grid and wavefunctions read in
 
   number of l-projection  operators is LMAX  =           4
   number of lm-projection operators is LMMAX =           8
 
 POTCAR:    PAW_PBE Sr_sv 07Sep2000               
   SHA256 =  a8389d3481648516ee67182ee030b298d280b37e29cbbf2d8595f040d757c710 Sr_sv/POTCAR          
   COPYR  = (c) Copyright 07Sep2000 Georg Kresse                                                    
   COPYR  = This file is part of the software VASP. Any use, copying, and all other rights are regul
   COPYR  = If you do not have a valid VASP license, you may not use, copy or distribute this file. 
   VRHFIN =Sr: 4s4p5s                                                                               
   LEXCH  = PE                                                                                      
   EATOM  =   843.0319 eV,   61.9611 Ry                                                             
                                                                                                    
   TITEL  = PAW_PBE Sr_sv 07Sep2000                                                                 
   LULTRA =        F    use ultrasoft PP ?                                                          
   IUNSCR =        1    unscreen: 0-lin 1-nonlin 2-no                                               
   RPACOR =    2.200    partial core radius                                                         
   POMASS =   87.620; ZVAL   =   10.000    mass and valenz                                          
   RCORE  =    2.500    outmost cutoff radius                                                       
   RWIGS  =    4.040; RWIGS  =    2.138    wigner-seitz radius (au A)                               
   ENMAX  =  229.353; ENMIN  =  172.014 eV                                                          
   RCLOC  =    2.201    cutoff for local pot                                                        
   LCOR   =        T    correct aug charges                                                         
   LPAW   =        T    paw PP                                                                      
   EAUG   =  366.804                                                                                
   DEXC   =    0.000                                                                                
   RMAX   =    2.547    core radius for proj-oper                                                   
   RAUG   =    1.300    factor for augmentation sphere                                              
   RDEP   =    2.562    radius for radial grids                                                     
   RDEPT  =    2.128    core radius for aug-charge                                                  
                                                                                                    
   Atomic configuration                                                                             
   10 entries                                                                                       
     n  l   j            E        occ.                                                              
     1  0  0.50    -15934.8930   2.0000                                                             
     2  0  0.50     -2157.6250   2.0000                                                             
     2  1  1.50     -1917.0034   6.0000                                                             
     3  0  0.50      -333.7288   2.0000                                                             
     3  1  1.50      -256.0992   6.0000                                                             
     3  2  2.50      -127.9971  10.0000                                                             
     4  0  0.50       -40.8953   2.0000                                                             
     5  0  0.50        -3.5257   1.9990                                                             
     4  1  1.50       -22.8179   6.0000                                                             
     4  2  1.50        -1.2815   0.0010                                                             
   Description                                                                                      
     l       E           TYP  RCUT    TYP  RCUT                                                     
     0    -40.8953213     23  2.480                                                                 
     0     -3.5257161     23  2.480                                                                 
     1    -22.8178632     23  2.500                                                                 
     1    -24.1784458     23  2.500                                                                 
     2     -1.2814598     23  2.500                                                                 
     2      0.2279365     23  2.500                                                                 
  local pseudopotential read in
  partial core-charges read in
  partial kinetic energy density read in
  atomic valenz-charges read in
  non local Contribution for L=           0  read in
    real space projection operators read in
  non local Contribution for L=           0  read in
    real space projection operators read in
  non local Contribution for L=           1  read in
    real space projection operators read in
  non local Contribution for L=           1  read in
    real space projection operators read in
  non local Contribution for L=           2  read in
    real space projection operators read in
  non local Contribution for L=           2  read in
    real space projection operators read in
    PAW grid and wavefunctions read in
 
   number of l-projection  operators is LMAX  =           6
   number of lm-projection operators is LMMAX =          18
 
 POTCAR:    PAW_PBE Ti_sv 26Sep2005               
   SHA256 =  4d747badb5a5ea28d858fbac70885b3f8929d6fd9e5b0dbe1ecb9878dc164da1 Ti_sv/POTCAR          
   COPYR  = (c) Copyright 26Sep2005 Georg Kresse                                                    
   COPYR  = This file is part of the software VASP. Any use, copying, and all other rights are regul
   COPYR  = If you do not have a valid VASP license, you may not use, copy or distribute this file. 
   VRHFIN =Ti: 3p4s3d                                                                               
   LEXCH  = PE                                                                                      
   EATOM  =  1588.0892 eV,  116.7213 Ry                                                             
                                                                                                    
   TITEL  = PAW_PBE Ti_sv 26Sep2005                                                                 
   LULTRA =        F    use ultrasoft PP ?                                                          
   IUNSCR =        1    unscreen: 0-lin 1-nonlin 2-no                                               
   RPACOR =    2.000    partial core radius                                                         
   POMASS =   47.880; ZVAL   =   12.000    mass and valenz                                          
   RCORE  =    2.300    outmost cutoff radius                                                       
   RWIGS  =    2.300; RWIGS  =    1.217    wigner-seitz radius (au A)                               
   ENMAX  =  274.610; ENMIN  =  205.957 eV                                                          
   ICORE  =        3    local potential                                                             
   LCOR   =        T    correct aug charges                                                         
   LPAW   =        T    paw PP                                                                      
   EAUG   =  482.848                                                                                
   RMAX   =    2.348    core radius for proj-oper                                                   
   RAUG   =    1.300    factor for augmentation sphere                                              
   RDEP   =    2.381    radius for radial grids                                                     
   RDEPT  =    1.930    core radius for aug-charge                                                  
                                                                                                    
   Atomic configuration                                                                             
    8 entries                                                                                       
     n  l   j            E        occ.                                                              
     1  0  0.50     -4865.3608   2.0000                                                             
     2  0  0.50      -533.1368   2.0000                                                             
     2  1  1.50      -440.5031   6.0000                                                             
     3  0  0.50       -59.3186   2.0000                                                             
     4  0  0.50        -3.7291   1.0000                                                             
     3  1  1.50       -35.7012   6.0000                                                             
     3  2  2.50        -1.9157   3.0000                                                             
     4  3  2.50        -1.3606   0.0000                                                             
   Description                                                                                      
     l       E           TYP  RCUT    TYP  RCUT                                                     
     0    -59.3185931     23  1.800                                                                 
     0     -3.7290822     23  2.300                                                                 
     1    -35.7012045     23  2.300                                                                 
     1     -1.3605826     23  2.300                                                                 
     2     -1.9156920     23  2.300                                                                 
     2     -0.0236318     23  2.300                                                                 
     3     -1.3605826     23  2.300                                                                 
  local pseudopotential read in
  partial core-charges read in
  partial kinetic energy density read in
  atomic valenz-charges read in
  non local Contribution for L=           0  read in
    real space projection operators read in
  non local Contribution for L=           0  read in
    real space projection operators read in
  non local Contribution for L=           1  read in
    real space projection operators read in
  non local Contribution for L=           1  read in
    real space projection operators read in
  non local Contribution for L=           2  read in
    real space projection operators read in
  non local Contribution for L=           2  read in
    real space projection operators read in
    PAW grid and wavefunctions read in
 
   number of l-projection  operators is LMAX  =           6
   number of lm-projection operators is LMMAX =          18
 
 POTCAR:    PAW_PBE H 15Jun2001                   
   SHA256 =  030f79b5d3ab3cf0e668861823c8fb652ff669f3e15e46930bd03bfd63a607b6 H/POTCAR              
   COPYR  = (c) Copyright 15Jun2001 Georg Kresse                                                    
   COPYR  = This file is part of the software VASP. Any use, copying, and all other rights are regul
   COPYR  = If you do not have a valid VASP license, you may not use, copy or distribute this file. 
   VRHFIN =H: ultrasoft test                                                                        
   LEXCH  = PE                                                                                      
   EATOM  =    12.4884 eV,    0.9179 Ry                                                             
                                                                                                    
   TITEL  = PAW_PBE H 15Jun2001                                                                     
   LULTRA =        F    use ultrasoft PP ?                                                          
   IUNSCR =        0    unscreen: 0-lin 1-nonlin 2-no                                               
   RPACOR =    0.000    partial core radius                                                         
   POMASS =    1.000; ZVAL   =    1.000    mass and valenz                                          
   RCORE  =    1.100    outmost cutoff radius                                                       
   RWIGS  =    0.700; RWIGS  =    0.370    wigner-seitz radius (au A)                               
   ENMAX  =  250.000; ENMIN  =  200.000 eV                                                          
   RCLOC  =    0.701    cutoff for local pot                                                        
   LCOR   =        T    correct aug charges                                                         
   LPAW   =        T    paw PP                                                                      
   EAUG   =  400.000                                                                                
   RMAX   =    1.123    core radius for proj-oper                                                   
   RAUG   =    1.200    factor for augmentation sphere                                              
   RDEP   =    1.112    radius for radial grids                                                     
   RDEPT  =    0.926    core radius for aug-charge                                                  
                                                                                                    
   Atomic configuration                                                                             
    2 entries                                                                                       
     n  l   j            E        occ.                                                              
     1  0  0.50        -6.4927   1.0000                                                             
     2  1  0.50        -3.4015   0.0000                                                             
   Description                                                                                      
     l       E           TYP  RCUT    TYP  RCUT                                                     
     0     -6.4927494     23  1.100                                                                 
     0      6.8029130     23  1.100                                                                 
     1     -4.0817478     23  1.100                                                                 
  local pseudopotential read in
  atomic valenz-charges read in
  non local Contribution for L=           0  read in
    real space projection operators read in
  non local Contribution for L=           0  read in
    real space projection operators read in
  non local Contribution for L=           1  read in
    real space projection operators read in
    PAW grid and wavefunctions read in
 
   number of l-projection  operators is LMAX  =           3
   number of lm-projection operators is LMMAX =           5
 
 Optimization of the real space projectors (new method)

 maximal supplied QI-value         = 15.12
 optimisation between [QCUT,QGAM] = [ 11.34, 22.83] = [ 36.00,145.93] Ry 
 Optimized for a Real-space Cutoff    1.39 Angstroem

   l    n(q)    QCUT    max X(q) W(low)/X(q) W(high)/X(q)  e(spline) 
   2      9    11.338    60.898    0.39E-03    0.42E-03    0.21E-06
   2      9    11.338    58.894    0.40E-03    0.42E-03    0.22E-06
   0      9    11.338   109.617    0.13E-03    0.20E-04    0.13E-06
   0      9    11.338    75.026    0.13E-03    0.20E-04    0.13E-06
   1      9    11.338    16.344    0.33E-04    0.24E-03    0.18E-06
   1      9    11.338    10.160    0.26E-04    0.19E-03    0.15E-06
 Optimization of the real space projectors (new method)

 maximal supplied QI-value         = 24.76
 optimisation between [QCUT,QGAM] = [ 11.39, 22.77] = [ 36.31,145.25] Ry 
 Optimized for a Real-space Cutoff    1.00 Angstroem

   l    n(q)    QCUT    max X(q) W(low)/X(q) W(high)/X(q)  e(spline) 
   0      7    11.387    20.381    0.39E-03    0.13E-02    0.15E-06
   0      7    11.387    15.268    0.42E-03    0.14E-02    0.17E-06
   1      6    11.387     5.964    0.41E-03    0.11E-02    0.17E-06
   1      6    11.387     5.382    0.39E-03    0.87E-03    0.15E-06
 Optimization of the real space projectors (new method)

 maximal supplied QI-value         = 15.12
 optimisation between [QCUT,QGAM] = [ 11.34, 22.83] = [ 36.00,145.93] Ry 
 Optimized for a Real-space Cutoff    1.56 Angstroem

   l    n(q)    QCUT    max X(q) W(low)/X(q) W(high)/X(q)  e(spline) 
   0     11    11.338    11.565    0.26E-04    0.80E-05    0.70E-07
   0     11    11.338    10.214    0.41E-04    0.15E-04    0.15E-06
   1     10    11.338   189.983    0.18E-03    0.52E-04    0.42E-06
   1     10    11.338   193.105    0.19E-03    0.52E-04    0.42E-06
   2     10    11.338   115.941    0.22E-03    0.42E-03    0.43E-06
   2     10    11.338    76.444    0.21E-03    0.41E-03    0.42E-06
 Optimization of the real space projectors (new method)

 maximal supplied QI-value         = 16.25
 optimisation between [QCUT,QGAM] = [ 11.38, 22.75] = [ 36.24,144.96] Ry 
 Optimized for a Real-space Cutoff    1.27 Angstroem

   l    n(q)    QCUT    max X(q) W(low)/X(q) W(high)/X(q)  e(spline) 
   0      9    11.376    12.277    0.53E-04    0.25E-04    0.25E-07
   0      9    11.376    11.419    0.89E-04    0.67E-05    0.35E-07
   1      8    11.376     4.010    0.13E-03    0.11E-03    0.29E-07
   1      8    11.376     6.182    0.94E-04    0.19E-03    0.11E-06
   2      8    11.376    47.177    0.13E-03    0.88E-03    0.24E-06
   2      8    11.376    42.437    0.13E-03    0.86E-03    0.23E-06
 Optimization of the real space projectors (new method)

 maximal supplied QI-value         = 34.20
 optimisation between [QCUT,QGAM] = [ 11.29, 22.57] = [ 35.68,142.71] Ry 
 Optimized for a Real-space Cutoff    1.16 Angstroem

   l    n(q)    QCUT    max X(q) W(low)/X(q) W(high)/X(q)  e(spline) 
   0      8    11.287    19.460    0.40E-03    0.73E-03    0.16E-06
   0      8    11.287    12.209    0.38E-03    0.70E-03    0.15E-06
   1      7    11.287     4.655    0.22E-03    0.25E-04    0.22E-06
 -----------------------------------------------------------------------------
|                                                                             |
|               ----> ADVICE to this user running VASP <----                  |
|                                                                             |
|     You enforced a specific xc type in the INCAR file but a different       |
|     type was found in the POTCAR file.                                      |
|     I HOPE YOU KNOW WHAT YOU ARE DOING!                                     |
|                                                                             |
 -----------------------------------------------------------------------------

  PAW_PBE Au 04Oct2007                  :
 energy of atom  1       EATOM= -926.0867
 kinetic energy error for atom=    0.0042 (will be added to EATOM!!)
  PAW_PBE O 08Apr2002                   :
 energy of atom  2       EATOM= -432.3788
 kinetic energy error for atom=    0.0224 (will be added to EATOM!!)
  PAW_PBE Sr_sv 07Sep2000               :
 energy of atom  3       EATOM= -843.0319
 kinetic energy error for atom=    0.0012 (will be added to EATOM!!)
  PAW_PBE Ti_sv 26Sep2005               :
 energy of atom  4       EATOM=-1588.0892
 kinetic energy error for atom=    0.0046 (will be added to EATOM!!)
  PAW_PBE H 15Jun2001                   :
 energy of atom  5       EATOM=  -12.4884
 kinetic energy error for atom=    0.0020 (will be added to EATOM!!)
 
 
 POSCAR: Au O  Sr Ti H
  positions in cartesian coordinates
  No initial velocities read in
 exchange correlation table for  LEXCH =       17
   RHO(1)=    0.500       N(1)  =     2000
   RHO(2)=  100.500       N(2)  =     4000

 VTST: version 4.1, (05/19/21)

 CHAIN: initializing optimizer
 
 OPT: Using VASP Dynamics algorithm
 CHAIN: Read ICHAIN            0
 
 POSCAR: Au O  Sr Ti H
  positions in cartesian coordinates
  No initial velocities read in
 


--------------------------------------------------------------------------------------------------------


 ion  position               nearest neighbor table
   1  0.718  0.526  0.754-  15 2.71  16 2.73  14 2.79  44 2.83   2 2.84  29 2.93  46 3.03
   2  0.624  0.569  0.704- 264 2.08  15 2.82   1 2.84  46 2.87  48 2.88  16 2.90  12 2.93  36 3.03
                            11 3.31   5 3.58 380 3.70
   3  0.718  0.259  0.691- 294 2.06 253 2.07  32 2.65  43 2.79  27 2.84 401 3.05 370 4.02 371 4.04

   4  0.305  0.750  0.692- 266 2.05 310 2.06  23 2.81   9 2.89  42 3.03  50 3.15  45 3.56 372 4.02
                           368 4.07
   5  0.510  0.607  0.777-  26 2.68  48 2.75  13 2.83  47 2.93  12 2.94  39 2.94  16 3.07   6 3.15
                            49 3.41  30 3.49  31 3.54   2 3.58
   6  0.579  0.725  0.793-  36 2.73  18 2.73  17 2.78  47 2.81  13 3.03   5 3.15  48 3.18  16 3.42

   7  0.549  0.383  0.827-  10 2.76  33 2.79  29 2.87  20 2.88  34 2.95  31 2.99  12 3.06  41 3.32

   8  0.242  0.467  0.709- 309 2.12  19 2.67  24 2.85  40 2.92  45 2.96  35 3.04 378 4.16
   9  0.291  0.666  0.765- 459 1.80  45 2.66  30 2.78  50 2.80  24 2.84   4 2.89
  10  0.603  0.288  0.787-   7 2.76  32 2.78  27 2.79  41 2.79  43 2.80  25 3.06  34 3.31
  11  0.513  0.486  0.678- 279 2.11 247 2.15  26 2.70  12 2.77  49 2.89  34 2.90 389 3.13   2 3.31
                            46 3.36 375 3.56  37 3.60 386 4.01
  12  0.560  0.488  0.762-  11 2.77  34 2.80  49 2.84  29 2.86  31 2.88   2 2.93   5 2.94  16 2.99
                            46 3.02   7 3.06
  13  0.464  0.697  0.833-  30 2.82   5 2.83  47 2.84  50 2.87  18 2.93  39 2.97   6 3.03
  14  0.764  0.432  0.705- 254 2.01  44 2.71   1 2.79  46 2.79  43 2.88 363 3.73 370 4.22
  15  0.734  0.616  0.694- 292 2.10 250 2.11  36 2.67   1 2.71   2 2.82  28 3.25 380 3.42 365 3.72

  16  0.634  0.584  0.800-   1 2.73  47 2.77  36 2.78  31 2.82   2 2.90  12 2.99   5 3.07  29 3.22
                             6 3.42
  17  0.595  0.784  0.713- 257 2.08   6 2.78  28 2.79  48 2.94  18 2.95  36 3.09 379 4.18
  18  0.485  0.781  0.759-   6 2.73  50 2.75  23 2.81  42 2.87  13 2.93  17 2.95  48 3.39
  19  0.349  0.501  0.695- 291 2.11   8 2.67  37 2.89  24 2.89  49 2.89  45 2.97  40 2.98  26 3.06
                           368 4.08 369 4.20
  20  0.429  0.372  0.814-  33 2.77  21 2.79   7 2.88  41 2.91  49 2.93  40 2.96  38 3.00  34 3.20

  21  0.371  0.298  0.755-  35 2.76  37 2.77  20 2.79  40 2.85  22 2.86  41 2.87
  22  0.442  0.228  0.697- 302 2.01 289 2.16  41 2.74  25 2.78  21 2.86  37 3.60 376 3.87 367 4.35

  23  0.398  0.825  0.705- 290 2.07  42 2.80  18 2.81   4 2.81  50 2.84 372 3.66 384 3.98
  24  0.294  0.540  0.776-  45 2.79  38 2.81   9 2.84   8 2.85  30 2.87  19 2.89  40 2.90
  25  0.556  0.210  0.711- 311 2.13  22 2.78  41 2.85  27 2.85  32 2.87  10 3.06 376 3.94
  26  0.452  0.582  0.703- 291 2.11   5 2.68  11 2.70  42 2.77  48 2.85  49 2.86  19 3.06 386 3.61
                           368 4.36
  27  0.613  0.321  0.697- 263 2.03  43 2.76  10 2.79   3 2.84  46 2.85  25 2.85  34 2.86  32 3.50
                           370 3.57 375 4.21
  28  0.706  0.758  0.688- 293 2.04 250 2.04  36 2.63  17 2.79 400 3.13  15 3.25 379 3.80 380 4.20

  29  0.655  0.442  0.810-  31 2.85  12 2.86   7 2.87  44 2.87  43 2.89   1 2.93  16 3.22  46 3.40

  30  0.373  0.617  0.821-  39 2.74   9 2.78  13 2.82  38 2.83  24 2.87  50 3.24   5 3.49
  31  0.571  0.509  0.857-  33 2.78  16 2.82  29 2.85  39 2.88  12 2.88  47 2.92   7 2.99   5 3.54

  32  0.665  0.193  0.752-   3 2.65  10 2.78  25 2.87  27 3.50  43 3.53
  33  0.472  0.448  0.879-  20 2.77  31 2.78  39 2.78   7 2.79  38 2.82
  34  0.516  0.379  0.733-  12 2.80  41 2.82  27 2.86  49 2.87  11 2.90   7 2.95  37 3.08  20 3.20
                            10 3.31  46 3.59 375 4.15
  35  0.283  0.339  0.703- 267 2.06  21 2.76  40 2.81  37 2.91   8 3.04 369 3.53 378 4.08
  36  0.670  0.681  0.749-  28 2.63  15 2.67   6 2.73  16 2.78   2 3.03  17 3.09  48 3.34
  37  0.398  0.382  0.690- 303 2.03 289 2.13  21 2.77  19 2.89  35 2.91  40 3.01  49 3.04  34 3.08
                           369 3.37  11 3.60  22 3.60 375 3.77
  38  0.376  0.491  0.833-  24 2.81  33 2.82  30 2.83  49 2.83  40 2.84  39 2.91  20 3.00
  39  0.465  0.571  0.865-  30 2.74  33 2.78  47 2.81  31 2.88  38 2.91   5 2.94  13 2.97
  40  0.326  0.415  0.769-  35 2.81  38 2.84  21 2.85  24 2.90   8 2.92  20 2.96  19 2.98  37 3.01
                            49 3.08
  41  0.487  0.270  0.775-  22 2.74  10 2.79  34 2.82  25 2.85  21 2.87  20 2.91   7 3.32
  42  0.424  0.703  0.700- 256 2.05  26 2.77  23 2.80  18 2.87  50 2.88  48 2.93   4 3.03 386 4.07
                           368 4.18
  43  0.700  0.347  0.756-  27 2.76   3 2.79  10 2.80  44 2.81  14 2.88  29 2.89  46 3.05  32 3.53

  44  0.774  0.430  0.795-  14 2.71  43 2.81   1 2.83  29 2.87
  45  0.262  0.597  0.697- 265 2.08 310 2.12   9 2.66  24 2.79   8 2.96  19 2.97 368 3.52   4 3.56
                           373 3.78
  46  0.647  0.443  0.697- 279 2.19  14 2.79  27 2.85   2 2.87  12 3.02   1 3.03  43 3.05  11 3.36
                            29 3.40 370 3.52  34 3.59
  47  0.565  0.640  0.861-  16 2.77   6 2.81  39 2.81  13 2.84  31 2.92   5 2.93
  48  0.543  0.666  0.701- 280 2.11   5 2.75  26 2.85   2 2.88  42 2.93  17 2.94   6 3.18  36 3.34
                            18 3.39 386 3.47
  49  0.441  0.476  0.755-  38 2.83  12 2.84  26 2.86  34 2.87  11 2.89  19 2.89  20 2.93  37 3.04
                            40 3.08   5 3.41
  50  0.376  0.752  0.780- 459 1.77  18 2.75   9 2.80  23 2.84  13 2.87  42 2.88   4 3.15  30 3.24

  51  0.250  0.188  0.454- 448 1.97 418 2.13 319 2.74 360 2.81 342 2.81 327 2.85
  52  0.749  0.938  0.455- 417 1.95 444 2.00 350 2.82 339 2.84 322 2.84 332 2.88
  53  0.749  0.689  0.457- 432 1.97 446 2.04 325 2.78 362 2.83 348 2.85 316 2.88
  54  0.749  0.438  0.456- 422 1.99 458 2.01 323 2.71 347 2.83 359 2.84 349 2.84
  55  0.750  0.190  0.456- 445 1.98 423 2.11 324 2.75 335 2.80 358 2.84 346 2.85
  56  0.417  0.936  0.454- 424 1.99 440 2.01 357 2.77 345 2.79 329 2.87 320 2.91
  57  0.417  0.685  0.455- 414 1.91 443 2.04 356 2.78 344 2.79 321 2.83 331 2.90
  58  0.416  0.435  0.454- 415 1.96 442 2.01 343 2.77 355 2.77 333 2.84 318 2.85
  59  0.084  0.687  0.453- 439 1.97 413 2.09 352 2.76 340 2.79 330 2.82 336 2.93
  60  0.084  0.937  0.453- 436 1.99 412 2.11 353 2.77 341 2.79 326 2.90 338 2.91
  61  0.083  0.437  0.453- 438 1.97 421 2.11 361 2.76 351 2.78 328 2.81 317 2.92
  62  0.084  0.187  0.453- 437 1.98 433 2.12 360 2.76 385 2.78 327 2.88 337 2.89
  63  0.917  0.812  0.454- 434 1.98 411 2.12 362 2.75 339 2.80 341 2.81 336 2.87
  64  0.916  0.562  0.454- 435 1.98 410 2.11 349 2.78 316 2.79 340 2.80 317 2.89
  65  0.251  0.439  0.455- 449 1.98 420 2.06 318 2.69 343 2.82 328 2.85 351 2.85
  66  0.916  0.062  0.454- 455 1.98 430 2.11 358 2.79 385 2.81 332 2.85 338 2.89
  67  0.916  0.312  0.454- 456 1.98 429 2.09 359 2.79 361 2.80 335 2.81 337 2.89
  68  0.417  0.187  0.454- 441 1.98 416 2.07 354 2.78 342 2.80 334 2.81 319 2.88
  69  0.252  0.688  0.456- 419 2.01 450 2.02 321 2.75 344 2.80 352 2.87 330 2.88
  70  0.916  0.937  0.454- 455 1.98 411 2.11 339 2.78 341 2.79 332 2.88 338 2.90
  71  0.583  0.189  0.455- 452 1.98 426 2.09 334 2.73 324 2.79 354 2.82 346 2.84
  72  0.000  0.125  0.498- 430 1.97 433 1.98 385 2.74 337 2.79 338 2.80
  73  0.584  0.810  0.456- 454 1.98 431 2.10 325 2.72 331 2.75 350 2.84 357 2.85
  74  1.000  0.373  0.498- 429 1.94 421 1.95 361 2.74 337 2.77 317 2.85
  75  0.000  0.627  0.498- 410 1.94 413 1.94 340 2.73 336 2.77 317 2.83
  76  0.334  0.126  0.499- 416 1.95 418 2.02 319 2.74 342 2.75 320 2.79 367 3.45
  77  0.000  0.875  0.499- 412 1.96 411 1.97 341 2.77 336 2.78 338 2.80
  78  0.333  0.874  0.499- 424 1.97 425 2.01 321 2.74 345 2.77 320 2.85 372 3.07
  79  0.666  0.126  0.499- 426 1.96 423 2.01 324 2.73 346 2.77 322 2.81 371 3.37
  80  0.336  0.626  0.504- 414 1.92 419 2.08 368 2.76 321 2.80 318 2.83 344 2.90
  81  0.334  0.379  0.503- 415 1.94 420 2.08 318 2.70 369 2.71 343 2.88 319 2.91
  82  0.665  0.379  0.503- 428 1.94 422 2.06 323 2.71 370 2.73 347 2.89 324 2.92
  83  0.915  0.687  0.453- 434 1.98 410 2.09 316 2.75 340 2.79 362 2.80 336 2.93
  84  0.916  0.437  0.454- 435 1.98 429 2.10 359 2.77 349 2.78 361 2.80 317 2.92
  85  0.916  0.187  0.453- 456 1.98 430 2.12 358 2.76 335 2.79 385 2.79 337 2.91
  86  0.583  0.936  0.454- 451 2.00 431 2.06 357 2.77 350 2.79 329 2.88 322 2.89
  87  0.583  0.686  0.455- 427 1.91 454 2.02 356 2.78 348 2.80 325 2.83 331 2.85
  88  0.583  0.439  0.456- 453 2.00 428 2.01 333 2.70 323 2.78 355 2.84 347 2.86
  89  0.250  0.936  0.454- 425 1.94 447 2.00 345 2.78 353 2.78 320 2.90 326 2.93
  90  0.665  0.626  0.503- 427 1.94 432 2.06 380 2.72 325 2.81 323 2.81 348 2.88
  91  0.585  0.563  0.455- 427 1.99 453 2.01 333 2.77 323 2.79 348 2.79 356 2.83
  92  0.583  0.062  0.455- 451 2.00 426 2.02 354 2.80 346 2.82 322 2.85 329 2.85
  93  0.917  0.687  0.361- 434 1.97 340 2.79 316 2.79
  94  0.917  0.437  0.361- 435 1.97 361 2.79 359 2.79
  95  0.917  0.188  0.361- 456 1.97 385 2.79 358 2.79
  96  0.583  0.938  0.361- 451 1.97 357 2.79 350 2.79
  97  0.583  0.687  0.361- 454 1.97 356 2.79 348 2.79
  98  0.583  0.437  0.361- 453 1.97 355 2.79 347 2.79
  99  0.583  0.188  0.361- 452 1.97 354 2.79 346 2.79
 100  0.250  0.938  0.361- 447 1.97 353 2.79 345 2.79
 101  0.917  0.938  0.361- 455 1.97 341 2.79 339 2.79
 102  0.250  0.687  0.361- 450 1.97 352 2.79 344 2.79
 103  0.250  0.188  0.361- 448 1.97 360 2.79 342 2.79
 104  0.750  0.938  0.361- 444 1.97 350 2.79 339 2.79
 105  0.750  0.687  0.361- 446 1.97 348 2.79 316 2.79
 106  0.750  0.437  0.361- 458 1.97 347 2.79 359 2.79
 107  0.750  0.188  0.361- 445 1.97 346 2.79 358 2.79
 108  0.417  0.938  0.361- 440 1.97 345 2.79 357 2.79
 109  0.417  0.687  0.361- 443 1.97 344 2.79 356 2.79
 110  0.417  0.437  0.361- 442 1.97 343 2.79 355 2.79
 111  0.250  0.437  0.361- 449 1.97 351 2.79 343 2.79
 112  0.083  0.063  0.361- 436 1.97 385 2.79 360 2.79
 113  0.083  0.312  0.361- 437 1.97 361 2.79 351 2.79
 114  0.083  0.563  0.361- 438 1.97 352 2.79 340 2.79
 115  0.917  0.312  0.361- 456 1.97 361 2.79 359 2.79
 116  0.917  0.063  0.361- 455 1.97 385 2.79 358 2.79
 117  0.583  0.812  0.361- 454 1.97 357 2.79 350 2.79
 118  0.583  0.563  0.361- 453 1.97 356 2.79 348 2.79
 119  0.583  0.312  0.361- 452 1.97 355 2.79 347 2.79
 120  0.583  0.063  0.361- 451 1.97 354 2.79 346 2.79
 121  0.250  0.812  0.361- 450 1.97 353 2.79 345 2.79
 122  0.250  0.563  0.361- 449 1.97 352 2.79 344 2.79
 123  0.250  0.312  0.361- 448 1.97 351 2.79 343 2.79
 124  0.250  0.063  0.361- 447 1.97 360 2.79 342 2.79
 125  0.750  0.812  0.361- 446 1.97 350 2.79 339 2.79
 126  0.750  0.563  0.361- 458 1.97 348 2.79 316 2.79
 127  0.750  0.312  0.361- 445 1.97 347 2.79 359 2.79
 128  0.750  0.063  0.361- 444 1.97 346 2.79 358 2.79
 129  0.417  0.812  0.361- 443 1.97 345 2.79 357 2.79
 130  0.417  0.563  0.361- 442 1.97 344 2.79 356 2.79
 131  0.417  0.312  0.361- 441 1.97 343 2.79 355 2.79
 132  0.417  0.063  0.361- 440 1.97 342 2.79 354 2.79
 133  0.083  0.812  0.361- 439 1.97 353 2.79 341 2.79
 134  0.417  0.188  0.361- 441 1.97 342 2.79 354 2.79
 135  0.083  0.938  0.361- 436 1.97 353 2.79 341 2.79
 136  0.083  0.687  0.361- 439 1.97 352 2.79 340 2.79
 137  0.083  0.437  0.361- 438 1.97 361 2.79 351 2.79
 138  0.833  0.500  0.407- 458 1.97 435 1.97 316 2.79 359 2.79 349 2.88
 139  0.833  0.750  0.407- 446 1.97 434 1.97 339 2.79 316 2.79 362 2.87
 140  0.084  0.062  0.454- 436 1.98 433 2.11 360 2.80 385 2.81 326 2.84 338 2.88
 141  0.084  0.312  0.454- 437 1.97 421 2.10 351 2.80 361 2.81 337 2.86 327 2.88
 142  0.084  0.562  0.454- 438 1.98 413 2.11 328 2.77 352 2.79 340 2.80 317 2.90
 143  0.084  0.812  0.454- 439 1.98 412 2.11 330 2.77 353 2.80 341 2.81 336 2.87
 144  0.417  0.062  0.455- 416 1.96 440 2.00 354 2.82 342 2.83 329 2.84 320 2.84
 145  0.416  0.311  0.457- 415 1.92 441 2.04 334 2.81 319 2.82 343 2.84 355 2.88
 146  0.416  0.560  0.458- 414 1.97 442 2.02 333 2.73 318 2.75 344 2.88 356 2.90
 147  0.417  0.810  0.455- 443 1.97 424 2.09 321 2.74 331 2.79 345 2.84 357 2.84
 148  0.750  0.064  0.453- 444 1.99 423 2.02 346 2.76 358 2.78 322 2.90 332 2.93
 149  0.747  0.314  0.455- 422 1.99 445 2.02 347 2.74 324 2.81 359 2.83 335 2.94
 150  0.748  0.564  0.454- 432 1.99 458 2.01 348 2.74 323 2.76 316 2.80 349 2.93
 151  0.749  0.813  0.453- 446 1.97 417 2.09 350 2.75 339 2.79 325 2.83 362 2.89
 152  0.250  0.062  0.454- 447 1.98 418 2.10 342 2.80 360 2.81 320 2.84 326 2.88
 153  0.915  0.313  0.547- 429 1.85 409 2.21 335 2.71 337 2.75 363 2.86 381 3.32
 154  0.252  0.314  0.454- 420 1.99 448 2.01 343 2.74 319 2.77 351 2.82 327 2.95
 155  0.252  0.565  0.453- 419 2.00 449 2.01 344 2.72 318 2.77 352 2.79 328 2.95
 156  0.250  0.811  0.455- 450 1.98 425 2.07 321 2.76 345 2.82 330 2.83 353 2.83
 157  0.833  0.250  0.407- 445 1.97 456 1.97 359 2.79 358 2.79 335 2.89
 158  0.584  0.315  0.454- 428 1.95 452 2.02 347 2.76 355 2.79 334 2.85 324 2.87
 159  0.833  0.000  0.407- 444 1.97 455 1.97 358 2.79 339 2.79 332 2.98
 160  0.500  0.500  0.407- 453 1.97 442 1.97 355 2.79 356 2.79 333 2.80
 161  0.083  0.188  0.361- 437 1.97 385 2.79 360 2.79
 162  0.000  0.000  0.407- 455 1.97 436 1.97 385 2.79 341 2.79 338 2.99
 163  0.000  0.250  0.407- 456 1.97 437 1.97 361 2.79 385 2.79 337 2.96
 164  0.000  0.500  0.407- 435 1.97 438 1.97 340 2.79 361 2.79 317 3.00
 165  0.000  0.750  0.407- 434 1.97 439 1.97 341 2.79 340 2.79 336 2.99
 166  0.333  0.000  0.407- 440 1.97 447 1.97 342 2.79 345 2.79 320 2.96
 167  0.333  0.250  0.407- 441 1.97 448 1.97 343 2.79 342 2.79 319 2.88
 168  0.333  0.500  0.407- 442 1.97 449 1.97 343 2.79 344 2.79 318 2.82
 169  0.333  0.750  0.407- 443 1.97 450 1.97 345 2.79 344 2.79 321 2.83
 170  0.667  0.000  0.407- 444 1.97 451 1.97 346 2.79 350 2.79 322 2.96
 171  0.667  0.250  0.407- 445 1.97 452 1.97 347 2.79 346 2.79 324 2.88
 172  0.667  0.500  0.407- 458 1.97 453 1.97 347 2.79 348 2.79 323 2.81
 173  0.667  0.750  0.407- 446 1.97 454 1.97 350 2.79 348 2.79 325 2.86
 174  0.167  0.000  0.407- 447 1.97 436 1.97 360 2.79 353 2.79 326 2.98
 175  0.167  0.250  0.407- 448 1.97 437 1.97 351 2.79 360 2.79 327 2.97
 176  0.167  0.500  0.407- 449 1.97 438 1.97 351 2.79 352 2.79 328 2.87
 177  0.167  0.750  0.407- 450 1.97 439 1.97 353 2.79 352 2.79 330 2.89
 178  0.500  0.000  0.407- 451 1.97 440 1.97 354 2.79 357 2.79 329 2.95
 179  0.500  0.250  0.407- 452 1.97 441 1.97 355 2.79 354 2.79 334 2.85
 180  0.500  0.750  0.407- 454 1.97 443 1.97 357 2.79 356 2.79 331 2.90
 181  0.167  0.124  0.499- 418 1.95 433 2.00 326 2.76 360 2.77 327 2.78
 182  0.918  0.063  0.547- 430 1.84 387 2.20 338 2.70 332 2.72 315 3.21 383 3.26
 183  0.168  0.873  0.500- 425 1.93 412 2.03 330 2.73 353 2.78 326 2.86 374 3.52
 184  0.252  0.188  0.547- 418 1.87 395 2.13 319 2.64 327 2.72 367 3.15 377 3.34
 185  0.749  0.934  0.548- 417 1.82 402 2.27 322 2.77 332 2.78 379 2.92 364 3.14
 186  0.752  0.680  0.553- 400 1.96 432 1.97 380 2.64 365 2.83 362 2.97 325 3.02
 187  0.752  0.435  0.549- 422 1.92 399 2.06 370 2.73 349 2.83 323 2.86 363 2.94
 188  0.423  0.444  0.545- 408 1.88 415 2.06 333 2.61 318 2.84 375 2.88 369 3.14
 189  0.423  0.688  0.547- 414 1.95 398 1.99 331 2.67 386 2.74 321 2.90 368 2.95
 190  0.748  0.184  0.551- 423 1.94 401 1.94 324 2.80 335 2.89 371 2.99 383 3.17
 191  0.416  0.937  0.546- 424 1.85 396 2.26 320 2.71 329 2.72 372 2.86 384 3.03
 192  0.084  0.939  0.546- 412 1.84 406 2.19 326 2.67 338 2.67 374 3.24 366 3.36
 193  0.416  0.192  0.547- 397 1.85 416 2.03 319 2.73 334 2.73 376 3.10 367 3.25
 194  0.087  0.690  0.545- 413 1.85 405 2.22 330 2.62 336 2.73 373 2.82
 195  0.083  0.439  0.545- 421 1.84 404 2.23 317 2.66 328 2.68 378 3.06 381 3.34
 196  0.084  0.189  0.546- 433 1.85 403 2.19 327 2.64 337 2.67 315 3.32 377 3.37
 197  0.499  0.126  0.500- 416 1.98 426 1.99 334 2.73 354 2.78 329 2.82 376 3.20
 198  1.000  0.501  0.594- 457 1.95 404 1.95 317 2.62 381 2.94 382 2.97
 199  1.000  0.753  0.592- 405 1.94 407 1.96 336 2.57 366 2.86 382 3.20
 200  0.335  0.255  0.593- 397 1.90 395 2.06 369 2.68 319 2.70 367 3.07
 201  0.334  1.000  0.592- 396 2.00 394 2.03 320 2.59 372 2.71 367 2.76
 202  1.000  0.999  0.593- 387 2.00 406 2.00 338 2.60 315 2.87 366 2.91
 203  0.001  0.250  0.592- 409 1.95 403 1.99 337 2.57 381 2.94 315 2.96
 204  0.333  0.497  0.591- 408 1.85 390 2.15 318 2.69 369 2.74 368 2.85
 205  0.336  0.741  0.589- 398 1.92 391 2.06 368 2.61 321 2.65 372 3.10
 206  0.663  0.248  0.591- 392 1.89 401 2.14 324 2.63 370 2.79 371 2.82
 207  0.666  0.000  0.592- 393 2.01 402 2.02 322 2.59 379 2.71 371 2.83
 208  0.666  0.742  0.590- 388 1.96 400 2.05 380 2.58 325 2.64 379 3.14
 209  0.667  0.494  0.591- 389 1.82 399 2.14 370 2.71 323 2.72 380 2.96
 210  0.167  0.999  0.592- 394 1.98 406 2.02 326 2.58 374 2.89 377 2.91
 211  0.168  0.249  0.593- 395 1.94 403 2.03 327 2.61 378 2.78 377 2.95
 212  0.171  0.750  0.596- 391 1.85 405 2.16 373 2.77 330 2.78 374 2.83
 213  0.248  0.436  0.549- 420 1.96 390 1.98 369 2.64 318 2.81 328 2.82 378 3.03
 214  0.166  0.504  0.588- 390 1.83 404 2.05 328 2.57 373 2.79 378 3.00
 215  0.249  0.683  0.552- 391 1.96 419 1.97 368 2.73 373 2.88 330 2.90 321 2.95
 216  0.581  0.186  0.549- 426 1.94 392 1.98 334 2.73 324 2.83 376 2.94 371 3.06
 217  0.915  0.813  0.547- 411 1.84 407 2.18 362 2.68 336 2.72 364 3.23 366 3.30
 218  0.917  0.564  0.547- 410 1.84 457 2.22 317 2.69 349 2.72 365 2.85
 219  0.581  0.560  0.550- 389 1.89 427 2.09 386 2.70 333 2.75 380 2.82 323 2.87
 220  0.585  0.815  0.551- 431 1.92 388 2.07 325 2.77 331 2.81 379 2.93 384 2.97
 221  0.583  0.312  0.546- 428 1.90 392 2.10 334 2.74 375 2.76 324 2.77 370 2.87
 222  0.582  0.063  0.547- 426 1.85 393 2.21 329 2.72 322 2.73 376 2.94 371 3.07
 223  0.253  0.812  0.550- 391 1.82 425 2.06 321 2.78 330 2.86 372 2.88 374 3.19
 224  0.252  0.559  0.543- 419 1.89 390 2.05 318 2.62 328 2.76 368 2.88 373 3.21
 225  0.249  0.314  0.546- 420 1.85 395 2.30 369 2.65 327 2.72 319 2.73 378 3.05
 226  0.251  0.063  0.547- 418 1.84 394 2.24 320 2.68 326 2.73 367 3.04 377 3.28
 227  0.748  0.808  0.546- 400 1.83 417 2.03 325 2.67 362 2.75 379 3.14 364 3.31
 228  0.746  0.558  0.544- 432 1.96 399 1.97 323 2.60 349 2.78 380 2.85 365 3.22
 229  0.415  0.812  0.548- 424 1.96 398 1.96 321 2.73 331 2.76 372 2.93 384 3.07
 230  0.748  0.060  0.545- 423 1.84 402 2.21 322 2.63 332 2.68 371 3.17 383 3.37
 231  0.748  0.311  0.548- 422 1.98 401 1.98 370 2.66 324 2.74 335 2.84 363 3.03
 232  0.416  0.320  0.553- 397 1.96 415 1.98 375 2.66 369 2.75 319 2.99 334 2.99
 233  0.420  0.565  0.555- 408 1.89 414 2.11 386 2.66 368 2.73 333 2.92 318 3.04
 234  0.416  0.065  0.547- 416 1.84 396 2.26 320 2.74 329 2.76 376 2.94 367 3.07
 235  0.085  0.813  0.548- 412 1.85 405 2.18 330 2.68 336 2.74 374 3.13 366 3.33
 236  0.083  0.564  0.546- 413 1.84 404 2.21 317 2.70 328 2.73 373 2.86
 237  0.086  0.313  0.547- 421 1.84 403 2.24 327 2.69 337 2.76 378 2.90 381 3.33
 238  0.082  0.063  0.548- 433 1.84 406 2.21 338 2.70 326 2.71 315 3.19 377 3.29
 239  0.916  0.938  0.546- 411 1.84 387 2.21 332 2.66 338 2.70 364 3.22 366 3.32
 240  0.914  0.689  0.545- 410 1.85 407 2.23 362 2.64 336 2.72 365 2.83
 241  0.583  0.939  0.545- 431 1.84 393 2.25 322 2.67 329 2.67 379 2.97 384 3.03
 242  0.917  0.189  0.545- 430 1.84 409 2.17 335 2.66 337 2.68 383 3.31 315 3.33
 243  0.916  0.438  0.546- 429 1.85 457 2.24 349 2.68 317 2.70 363 2.95 381 3.33
 244  0.577  0.436  0.552- 389 1.94 428 2.05 375 2.63 333 2.75 370 2.94 323 3.02
 245  0.580  0.686  0.547- 427 1.92 388 2.12 386 2.66 331 2.71 380 2.82 325 2.84
 246  0.251  0.937  0.545- 425 1.84 394 2.23 320 2.68 326 2.74 372 2.90 374 3.29
 247  0.498  0.505  0.608- 408 2.11  11 2.15 389 2.24 386 2.73 375 3.01 333 3.25
 248  0.499  0.253  0.590- 397 1.99 392 2.03 375 2.65 334 2.65 376 2.96
 249  0.499  0.000  0.591- 396 2.00 393 2.00 329 2.57 376 2.76 384 2.79
 250  0.754  0.694  0.657-  28 2.04  15 2.11 400 2.40 365 3.02 380 3.19
 251  0.748  0.937  0.640- 402 1.80 364 2.49 379 2.53
 252  0.253  0.186  0.641- 395 1.74 367 2.52 377 2.54
 253  0.746  0.195  0.647- 401 1.99   3 2.07 371 2.68 383 2.72
 254  0.755  0.436  0.639- 399 1.99  14 2.01 363 2.60 370 2.79
 255  0.417  0.935  0.640- 396 1.80 384 2.55 372 2.60
 256  0.419  0.678  0.635- 398 2.02  42 2.05 386 2.60 368 2.62
 257  0.591  0.810  0.646- 388 1.94  17 2.08 379 2.65 384 2.85
 258  0.916  0.063  0.642- 387 1.80 383 2.48 315 2.50
 259  0.912  0.562  0.642- 457 1.79 382 2.47 365 2.54
 260  0.915  0.312  0.639- 409 1.80 381 2.50 363 2.52
 261  0.914  0.813  0.641- 407 1.79 364 2.49 366 2.51
 262  0.582  0.066  0.640- 393 1.79 371 2.51 376 2.53
 263  0.583  0.320  0.634- 392 1.97  27 2.03 375 2.53 370 2.67
 264  0.592  0.565  0.640- 389 1.98   2 2.08 380 2.63 386 2.85
 265  0.248  0.573  0.631- 390 1.96  45 2.08 373 2.55 368 2.56
 266  0.264  0.801  0.645- 391 1.96   4 2.05 372 2.73 374 2.96
 267  0.249  0.316  0.642- 395 1.93  35 2.06 378 2.59 369 2.66
 268  0.251  0.060  0.642- 394 1.79 367 2.49 377 2.50
 269  0.917  0.563  0.361- 435 1.97 340 2.79 316 2.79
 270  0.500  0.374  0.500- 415 1.98 428 1.99 355 2.79 333 2.81 334 2.82 375 2.85
 271  0.500  0.873  0.501- 424 1.98 431 1.99 331 2.70 357 2.81 329 2.82 384 3.20
 272  0.500  0.621  0.500- 427 1.97 414 1.99 333 2.70 356 2.79 386 2.82 331 2.94
 273  0.832  0.623  0.500- 432 1.90 410 2.05 349 2.75 316 2.79 362 2.87 365 3.09
 274  0.833  0.874  0.499- 417 1.95 411 2.01 362 2.74 339 2.75 332 2.83
 275  0.833  0.373  0.500- 422 1.90 429 2.04 359 2.78 335 2.79 349 2.83 363 3.14
 276  0.833  0.124  0.500- 423 1.95 430 2.01 335 2.77 332 2.78 358 2.78
 277  0.167  0.376  0.498- 420 1.90 421 2.02 351 2.73 328 2.77 327 2.86 378 3.30
 278  0.168  0.624  0.499- 419 1.90 413 2.05 352 2.77 328 2.78 330 2.84 373 3.12
 279  0.580  0.439  0.647-  11 2.11 389 2.12  46 2.19 375 2.85 370 3.06
 280  0.580  0.685  0.639- 388 1.87  48 2.11 386 2.62 380 2.78
 281  0.917  0.187  0.641- 409 1.79 383 2.49 315 2.52
 282  0.582  0.935  0.639- 393 1.80 384 2.50 379 2.51
 283  0.830  0.750  0.592- 400 1.86 407 2.10 362 2.70 365 2.79 364 2.91
 284  0.832  0.248  0.591- 401 1.84 409 2.11 335 2.65 363 2.81 383 2.87
 285  0.833  0.503  0.589- 399 1.83 457 2.06 349 2.58 365 2.80 363 2.95
 286  0.832  0.002  0.592- 402 1.99 387 2.02 332 2.57 383 2.87 364 2.91
 287  0.501  0.755  0.593- 388 1.98 398 2.01 331 2.67 384 2.75 386 2.89
 288  0.418  0.065  0.640- 396 1.79 367 2.50 376 2.54
 289  0.427  0.305  0.655-  37 2.13  22 2.16 397 2.31 375 2.92 369 3.41
 290  0.413  0.814  0.638- 398 1.95  23 2.07 372 2.60 384 2.66
 291  0.399  0.552  0.651-  26 2.11  19 2.11 408 2.14 368 2.79 386 3.43
 292  0.753  0.570  0.635- 399 1.91  15 2.10 365 2.60 380 2.70
 293  0.741  0.810  0.640- 400 1.98  28 2.04 379 2.59 364 2.70
 294  0.747  0.313  0.640- 401 2.00   3 2.06 370 2.62 363 2.75
 295  0.747  0.067  0.639- 402 1.80 371 2.48 383 2.48
 296  0.084  0.312  0.640- 403 1.80 381 2.49 378 2.51
 297  0.666  0.875  0.499- 431 1.96 417 2.00 325 2.74 350 2.77 322 2.81 379 3.23
 298  0.087  0.562  0.642- 404 1.79 382 2.48 373 2.53
 299  0.084  0.061  0.642- 406 1.80 377 2.49 315 2.51
 300  0.086  0.437  0.639- 404 1.80 378 2.51 381 2.52
 301  0.083  0.186  0.641- 403 1.79 315 2.50 377 2.50
 302  0.418  0.188  0.640- 397 2.00  22 2.01 376 2.63 367 2.67
 303  0.415  0.420  0.629-  37 2.03 408 2.07 375 2.53 369 2.60
 304  0.084  0.935  0.640- 406 1.80 374 2.47 366 2.49
 305  0.083  0.687  0.640- 405 1.80 382 2.46 373 2.51
 306  0.913  0.436  0.639- 457 1.80 363 2.52 381 2.53
 307  0.916  0.688  0.640- 407 1.80 382 2.46 365 2.50
 308  0.914  0.937  0.641- 387 1.80 364 2.48 366 2.50
 309  0.241  0.442  0.641- 390 1.90   8 2.12 378 2.61 369 2.90
 310  0.262  0.680  0.662-   4 2.06  45 2.12 368 2.88 373 3.23
 311  0.579  0.191  0.644- 392 1.91  25 2.13 376 2.67 371 2.71
 312  0.252  0.930  0.637- 394 1.80 374 2.47 372 2.50
 313  0.084  0.812  0.642- 405 1.79 374 2.48 366 2.53
 314  0.917  0.812  0.361- 434 1.97 341 2.79 339 2.79
 315  0.001  0.123  0.620- 301 2.50 258 2.50 299 2.51 281 2.52 202 2.87 203 2.96 238 3.19 182 3.21
                           196 3.32 242 3.33 387 3.42 406 3.42 409 3.43 403 3.45 433 3.91 430 3.92
 316  0.833  0.625  0.407-  83 2.75  64 2.79 126 2.79 105 2.79 269 2.79  93 2.79 138 2.79 139 2.79
                           273 2.79 150 2.80  53 2.88 458 3.42 446 3.42 435 3.42 434 3.42 432 3.45
 317  1.000  0.501  0.507- 198 2.62 195 2.66 218 2.69 243 2.70 236 2.70  75 2.83  74 2.85  64 2.89
                           142 2.90  61 2.92  84 2.92 164 3.00 410 3.38 413 3.40 429 3.41 421 3.42
 318  0.331  0.499  0.501- 224 2.62  65 2.69 204 2.69  81 2.70 146 2.75 155 2.77 213 2.81 168 2.82
                            80 2.83 188 2.84  58 2.85 233 3.04 408 3.35 449 3.41 419 3.41 415 3.44
 319  0.330  0.248  0.503- 184 2.64 200 2.70 225 2.73 193 2.73  51 2.74  76 2.74 154 2.77 145 2.82
                           167 2.88  68 2.88  81 2.91 232 2.99 397 3.32 418 3.37 420 3.42 448 3.44
 320  0.333  0.001  0.506- 201 2.59 246 2.68 226 2.68 191 2.71 234 2.74  76 2.79 144 2.84 152 2.84
                            78 2.85  89 2.90  56 2.91 166 2.96 416 3.33 425 3.39 418 3.40 424 3.41
 321  0.334  0.751  0.501- 205 2.65 229 2.73 147 2.74  78 2.74  69 2.75 156 2.76 223 2.78  80 2.80
                           169 2.83  57 2.83 189 2.90 215 2.95 391 3.37 398 3.40 414 3.41 424 3.42
 322  0.666  0.000  0.506- 207 2.59 230 2.63 241 2.67 222 2.73 185 2.77 297 2.81  79 2.81  52 2.84
                            92 2.85  86 2.89 148 2.90 170 2.96 426 3.37 417 3.38 423 3.38 431 3.38
 323  0.669  0.500  0.501- 228 2.60  82 2.71  54 2.71 209 2.72 150 2.76  88 2.78  91 2.79 172 2.81
                            90 2.81 187 2.86 219 2.87 244 3.02 389 3.35 458 3.41 422 3.41 432 3.42
 324  0.667  0.248  0.503- 206 2.63  79 2.73 231 2.74  55 2.75 221 2.77  71 2.79 190 2.80 149 2.81
                           216 2.83 158 2.87 171 2.88  82 2.92 426 3.41 401 3.42 392 3.43 428 3.43
 325  0.665  0.752  0.502- 208 2.64 227 2.67  73 2.72 297 2.74 220 2.77  53 2.78  90 2.81 151 2.83
                            87 2.83 245 2.84 173 2.86 186 3.02 400 3.35 431 3.38 427 3.38 454 3.45
 326  0.166  0.001  0.506- 210 2.58 192 2.67 238 2.71 226 2.73 246 2.74 181 2.76 140 2.84 183 2.86
                           152 2.88  60 2.90  89 2.93 174 2.98 425 3.37 418 3.39 433 3.39 412 3.44
 327  0.166  0.249  0.506- 211 2.61 196 2.64 237 2.69 184 2.72 225 2.72 181 2.78  51 2.85 277 2.86
                            62 2.88 141 2.88 154 2.95 175 2.97 420 3.38 418 3.39 433 3.40 421 3.45
 328  0.164  0.500  0.503- 214 2.57 195 2.68 236 2.73 224 2.76 277 2.77 142 2.77 278 2.78  61 2.81
                           213 2.82  65 2.85 176 2.87 155 2.95 390 3.34 421 3.40 419 3.41 413 3.42
 329  0.500  1.000  0.505- 249 2.57 241 2.67 222 2.72 191 2.72 234 2.76 197 2.82 271 2.82 144 2.84
                            92 2.85  56 2.87  86 2.88 178 2.95 424 3.38 416 3.38 426 3.39 431 3.40
 330  0.164  0.751  0.503- 194 2.62 235 2.68 183 2.73 143 2.77 212 2.78  59 2.82 156 2.83 278 2.84
                           223 2.86  69 2.88 177 2.89 215 2.90 391 3.33 412 3.37 413 3.42 419 3.46
 331  0.501  0.753  0.504- 287 2.67 189 2.67 271 2.70 245 2.71  73 2.75 229 2.76 147 2.79 220 2.81
                            87 2.85  57 2.90 180 2.90 272 2.94 398 3.37 431 3.38 427 3.41 424 3.42
 332  0.834  0.000  0.507- 286 2.57 239 2.66 230 2.68 182 2.72 276 2.78 185 2.78 274 2.83  66 2.85
                            52 2.88  70 2.88 148 2.93 159 2.98 417 3.36 423 3.36 430 3.41 411 3.41
 333  0.501  0.500  0.500- 188 2.61  88 2.70 272 2.70 146 2.73 244 2.75 219 2.75  91 2.77 160 2.80
                           270 2.81  58 2.84 233 2.92 247 3.25 453 3.40 428 3.43 442 3.44 427 3.45
 334  0.501  0.248  0.502- 248 2.65  71 2.73 193 2.73 197 2.73 216 2.73 221 2.74  68 2.81 145 2.81
                           270 2.82 179 2.85 158 2.85 232 2.99 397 3.37 426 3.40 428 3.42 452 3.45
 335  0.835  0.248  0.503- 284 2.65 242 2.66 153 2.71 276 2.77 275 2.79  85 2.79  55 2.80  67 2.81
                           231 2.84 157 2.89 190 2.89 149 2.94 401 3.34 430 3.38 429 3.43 422 3.45
 336  1.000  0.751  0.507- 199 2.57 217 2.72 240 2.72 194 2.73 235 2.74  75 2.77  77 2.78  63 2.87
                           143 2.87  59 2.93  83 2.93 165 2.99 413 3.39 410 3.39 412 3.39 411 3.40
 337  0.001  0.250  0.506- 203 2.57 196 2.67 242 2.68 153 2.75 237 2.76  74 2.77  72 2.79 141 2.86
                            67 2.89  62 2.89  85 2.91 163 2.96 421 3.39 429 3.39 433 3.40 430 3.41
 338  1.000  1.000  0.507- 202 2.60 192 2.67 182 2.70 239 2.70 238 2.70  77 2.80  72 2.80 140 2.88
                            66 2.89  70 2.90  60 2.91 162 2.99 411 3.40 430 3.40 412 3.40 433 3.41
 339  0.833  0.875  0.407- 274 2.75  70 2.78 151 2.79 125 2.79 104 2.79 314 2.79 101 2.79 139 2.79
                           159 2.79  63 2.80  52 2.84 446 3.42 434 3.42 444 3.42 455 3.42 417 3.48
 340  0.000  0.625  0.407-  75 2.73 269 2.79  93 2.79 114 2.79 136 2.79 164 2.79 165 2.79  59 2.79
                            83 2.79  64 2.80 142 2.80 435 3.42 434 3.42 438 3.42 439 3.42 410 3.54
 341  0.000  0.875  0.407-  77 2.77  60 2.79  70 2.79 314 2.79 133 2.79 101 2.79 135 2.79 165 2.79
                           162 2.79  63 2.81 143 2.81 434 3.42 439 3.42 455 3.42 436 3.42 412 3.57
 342  0.333  0.125  0.407-  76 2.75 132 2.79 134 2.79 124 2.79 103 2.79 166 2.79 167 2.79  68 2.80
                           152 2.80  51 2.81 144 2.83 440 3.42 441 3.42 447 3.42 448 3.42 416 3.48
 343  0.333  0.375  0.407- 154 2.74  58 2.77 110 2.79 131 2.79 111 2.79 123 2.79 167 2.79 168 2.79
                            65 2.82 145 2.84  81 2.88 441 3.42 442 3.42 448 3.42 449 3.42 415 3.43
 344  0.333  0.625  0.407- 155 2.72 130 2.79 109 2.79 122 2.79 102 2.79 168 2.79 169 2.79  57 2.79
                            69 2.80 146 2.88  80 2.90 442 3.42 443 3.42 449 3.42 450 3.42 414 3.44
 345  0.333  0.875  0.407-  78 2.77  89 2.78  56 2.79 129 2.79 121 2.79 108 2.79 100 2.79 169 2.79
                           166 2.79 156 2.82 147 2.84 443 3.42 450 3.42 440 3.42 447 3.42 425 3.49
 346  0.667  0.125  0.407- 148 2.76  79 2.77 128 2.79 107 2.79 120 2.79  99 2.79 170 2.79 171 2.79
                            92 2.82  71 2.84  55 2.85 444 3.42 445 3.42 451 3.42 452 3.42 426 3.53
 347  0.667  0.375  0.407- 149 2.74 158 2.76 106 2.79 127 2.79  98 2.79 119 2.79 171 2.79 172 2.79
                            54 2.83  88 2.86  82 2.89 445 3.42 458 3.42 453 3.42 452 3.42 428 3.46
 348  0.667  0.625  0.407- 150 2.74 126 2.79 105 2.79 118 2.79  97 2.79 172 2.79 173 2.79  91 2.79
                            87 2.80  53 2.85  90 2.88 458 3.42 446 3.42 453 3.42 454 3.42 427 3.43
 349  0.836  0.500  0.503- 285 2.58 243 2.68 218 2.72 273 2.75  64 2.78 228 2.78  84 2.78 187 2.83
                           275 2.83  54 2.84 138 2.88 150 2.93 399 3.35 422 3.41 429 3.41 432 3.42
 350  0.667  0.875  0.407- 151 2.75 297 2.77  86 2.79 125 2.79 104 2.79 117 2.79  96 2.79 173 2.79
                           170 2.79  52 2.82  73 2.84 446 3.42 454 3.42 444 3.42 451 3.42 417 3.50
 351  0.167  0.375  0.407- 277 2.73  61 2.78 111 2.79 137 2.79 123 2.79 113 2.79 176 2.79 175 2.79
                           141 2.80 154 2.82  65 2.85 448 3.42 449 3.42 437 3.42 438 3.42 420 3.45
 352  0.167  0.625  0.407-  59 2.76 278 2.77 142 2.79 122 2.79 102 2.79 114 2.79 136 2.79 176 2.79
                           177 2.79 155 2.79  69 2.87 449 3.42 450 3.42 438 3.42 439 3.42 419 3.46
 353  0.167  0.875  0.407-  60 2.77  89 2.78 183 2.78 121 2.79 133 2.79 100 2.79 135 2.79 177 2.79
                           174 2.79 143 2.80 156 2.83 450 3.42 439 3.42 447 3.42 436 3.42 425 3.46
 354  0.500  0.125  0.407-  68 2.78 197 2.78 120 2.79  99 2.79 132 2.79 134 2.79 178 2.79 179 2.79
                            92 2.80  71 2.82 144 2.82 451 3.42 452 3.42 440 3.42 441 3.42 416 3.50
 355  0.500  0.375  0.407-  58 2.77 270 2.79  98 2.79 119 2.79 110 2.79 131 2.79 179 2.79 160 2.79
                           158 2.79  88 2.84 145 2.88 452 3.42 453 3.42 441 3.42 442 3.42 415 3.44
 356  0.500  0.625  0.407-  57 2.78  87 2.78 118 2.79  97 2.79 130 2.79 109 2.79 160 2.79 180 2.79
                           272 2.79  91 2.83 146 2.90 453 3.42 454 3.42 442 3.42 443 3.42 427 3.44
 357  0.500  0.875  0.407-  86 2.77  56 2.77 117 2.79 129 2.79  96 2.79 108 2.79 180 2.79 178 2.79
                           271 2.81 147 2.84  73 2.85 454 3.42 443 3.42 451 3.42 440 3.42 424 3.51
 358  0.833  0.125  0.407-  85 2.76 148 2.78 276 2.78 128 2.79 107 2.79 116 2.79  95 2.79 159 2.79
                           157 2.79  66 2.79  55 2.84 444 3.42 445 3.42 455 3.42 456 3.42 423 3.53
 359  0.833  0.375  0.407-  84 2.77 275 2.78 106 2.79 127 2.79  94 2.79 115 2.79 157 2.79 138 2.79
                            67 2.79 149 2.83  54 2.84 445 3.42 458 3.42 456 3.42 435 3.42 422 3.45
 360  0.167  0.125  0.407-  62 2.76 181 2.77 124 2.79 103 2.79 112 2.79 161 2.79 174 2.79 175 2.79
                           140 2.80  51 2.81 152 2.81 447 3.42 448 3.42 436 3.42 437 3.42 418 3.57
 361  0.000  0.375  0.407-  74 2.74  61 2.76  94 2.79 115 2.79 137 2.79 113 2.79 163 2.79 164 2.79
                            84 2.80  67 2.80 141 2.81 435 3.42 456 3.42 438 3.42 437 3.42 429 3.54
 362  0.836  0.752  0.503- 240 2.64 217 2.68 283 2.70 274 2.74 227 2.75  63 2.75  83 2.80  53 2.83
                           139 2.87 273 2.87 151 2.89 186 2.97 400 3.31 411 3.37 410 3.43 434 3.44
 363  0.837  0.373  0.604- 306 2.52 260 2.52 254 2.60 294 2.75 284 2.81 153 2.86 187 2.94 243 2.95
                           285 2.95 231 3.03 275 3.14 409 3.39 401 3.42 457 3.44 399 3.48 429 3.53
 364  0.832  0.876  0.618- 308 2.48 251 2.49 261 2.49 293 2.70 286 2.91 283 2.91 185 3.14 239 3.22
                           217 3.23 227 3.31 387 3.44 402 3.44 400 3.45 407 3.48 411 3.89 417 3.94
 365  0.840  0.627  0.603- 307 2.50 259 2.54 292 2.60 283 2.79 285 2.80 186 2.83 240 2.83 218 2.85
                           250 3.02 273 3.09 228 3.22 407 3.34 457 3.37 399 3.41 410 3.45 400 3.52
 366  0.999  0.875  0.622- 304 2.49 308 2.50 261 2.51 313 2.53 199 2.86 202 2.91 217 3.30 239 3.32
                           235 3.33 192 3.36 407 3.40 405 3.42 406 3.46 387 3.46 364 3.95 374 3.95
 367  0.332  0.120  0.614- 268 2.49 288 2.50 252 2.52 302 2.67 201 2.76 226 3.04 200 3.07 234 3.07
                           184 3.15 193 3.25 396 3.36 394 3.36 395 3.44  76 3.45 397 3.55 418 3.76
 368  0.333  0.625  0.596- 265 2.56 205 2.61 256 2.62 233 2.73 215 2.73  80 2.76 291 2.79 204 2.85
                           310 2.88 224 2.88 189 2.95 408 3.38 398 3.41 419 3.44 414 3.46 391 3.49
 369  0.325  0.374  0.593- 303 2.60 213 2.64 225 2.65 267 2.66 200 2.68  81 2.71 204 2.74 232 2.75
                           309 2.90 188 3.14 420 3.27  37 3.37 395 3.40 289 3.41 390 3.42 408 3.43
 370  0.671  0.372  0.594- 294 2.62 231 2.66 263 2.67 209 2.71 187 2.73  82 2.73 254 2.79 206 2.79
                           221 2.87 244 2.94 279 3.06 422 3.35 401 3.39 428 3.45 389 3.45 392 3.46
 371  0.665  0.125  0.612- 295 2.48 262 2.51 253 2.68 311 2.71 206 2.82 207 2.83 190 2.99 216 3.06
                           222 3.07 230 3.17  79 3.37 392 3.38 393 3.39 402 3.40 401 3.50 426 3.75
 372  0.334  0.879  0.602- 312 2.50 290 2.60 255 2.60 201 2.71 266 2.73 191 2.86 223 2.88 246 2.90
                           229 2.93  78 3.07 205 3.10 394 3.32 396 3.34 391 3.47 398 3.49 424 3.52
 373  0.160  0.627  0.603- 305 2.51 298 2.53 265 2.55 212 2.77 214 2.79 194 2.82 236 2.86 215 2.88
                           278 3.12 224 3.21 310 3.23 405 3.34 404 3.37 390 3.45 413 3.45 391 3.54
 374  0.166  0.874  0.617- 312 2.47 304 2.47 313 2.48 212 2.83 210 2.89 266 2.96 235 3.13 223 3.19
                           192 3.24 246 3.29 405 3.43 394 3.43 391 3.43 406 3.43 183 3.52 412 3.85
 375  0.502  0.372  0.595- 263 2.53 303 2.53 244 2.63 248 2.65 232 2.66 221 2.76 279 2.85 270 2.85
                           188 2.88 289 2.92 247 3.01 392 3.39 428 3.40 397 3.43 415 3.48 408 3.54
 376  0.500  0.122  0.606- 262 2.53 288 2.54 302 2.63 311 2.67 249 2.76 234 2.94 216 2.94 222 2.94
                           248 2.96 193 3.10 197 3.20 393 3.33 396 3.36 392 3.45 397 3.51 426 3.63
 377  0.167  0.123  0.622- 299 2.49 268 2.50 301 2.50 252 2.54 210 2.91 211 2.95 226 3.28 238 3.29
                           184 3.34 196 3.37 395 3.40 394 3.44 406 3.45 403 3.48 367 3.90 315 3.95
 378  0.163  0.372  0.608- 300 2.51 296 2.51 267 2.59 309 2.61 211 2.78 237 2.90 214 3.00 213 3.03
                           225 3.05 195 3.06 277 3.30 403 3.35 390 3.44 395 3.47 404 3.47 421 3.61
 379  0.665  0.881  0.607- 282 2.51 251 2.53 293 2.59 257 2.65 207 2.71 185 2.92 220 2.93 241 2.97
                           208 3.14 227 3.14 297 3.23 393 3.32 402 3.36 388 3.50 400 3.56 431 3.60
 380  0.666  0.626  0.594- 208 2.58 264 2.63 186 2.64 292 2.70  90 2.72 280 2.78 245 2.82 219 2.82
                           228 2.85 209 2.96 250 3.19 389 3.32 388 3.37 427 3.40 432 3.41  15 3.42
 381  1.000  0.375  0.622- 296 2.49 260 2.50 300 2.52 306 2.53 203 2.94 198 2.94 153 3.32 237 3.33
                           243 3.33 195 3.34 409 3.45 457 3.45 404 3.46 403 3.49 378 3.89 363 3.89
 382  0.999  0.622  0.636- 305 2.46 307 2.46 259 2.47 298 2.48 198 2.97 199 3.20 457 3.46 404 3.47
                           405 3.59 407 3.61 365 3.91 373 3.93 317 4.73 336 4.84
 383  0.833  0.125  0.620- 295 2.48 258 2.48 281 2.49 253 2.72 286 2.87 284 2.87 190 3.17 182 3.26
                           242 3.31 230 3.37 401 3.42 402 3.43 387 3.44 409 3.47 430 3.95 315 3.96
 384  0.500  0.877  0.607- 282 2.50 255 2.55 290 2.66 287 2.75 249 2.79 257 2.85 220 2.97 191 3.03
                           241 3.03 229 3.07 271 3.20 393 3.39 396 3.39 388 3.47 398 3.49 431 3.64
 385  0.000  0.125  0.407-  72 2.74  62 2.78 116 2.79  95 2.79 112 2.79 161 2.79 162 2.79 163 2.79
                            85 2.79  66 2.81 140 2.81 455 3.42 456 3.42 436 3.42 437 3.42 430 3.57
 386  0.503  0.626  0.594- 256 2.60 280 2.62 233 2.66 245 2.66 219 2.70 247 2.73 189 2.74 272 2.82
                           264 2.85 287 2.89 388 3.38 427 3.39 291 3.43 398 3.45 414 3.46 389 3.46
 387  0.916  0.001  0.604- 258 1.80 308 1.80 202 2.00 286 2.02 182 2.20 239 2.21 315 3.42 383 3.44
                           364 3.44 366 3.46 332 3.51 338 3.53
 388  0.584  0.750  0.600- 280 1.87 257 1.94 208 1.96 287 1.98 220 2.07 245 2.12 380 3.37 386 3.38
                           384 3.47 331 3.48 325 3.50 379 3.50
 389  0.590  0.501  0.594- 209 1.82 219 1.89 244 1.94 264 1.98 279 2.12 247 2.24  11 3.13 380 3.32
                           323 3.35 370 3.45 386 3.46 333 3.51 375 3.57
 390  0.243  0.500  0.595- 214 1.83 309 1.90 265 1.96 213 1.98 224 2.05 204 2.15 328 3.34 369 3.42
                           378 3.44 373 3.45 318 3.51 368 3.51
 391  0.249  0.753  0.592- 223 1.82 212 1.85 215 1.96 266 1.96 205 2.06 330 3.33 321 3.37 374 3.43
                           372 3.47 368 3.49 373 3.54
 392  0.584  0.248  0.597- 206 1.89 311 1.91 263 1.97 216 1.98 248 2.03 221 2.10 371 3.38 375 3.39
                           324 3.43 376 3.45 334 3.45 370 3.46
 393  0.582  0.001  0.604- 262 1.79 282 1.80 249 2.00 207 2.01 222 2.21 241 2.25 379 3.32 376 3.33
                           384 3.39 371 3.39 329 3.55 322 3.56
 394  0.250  0.998  0.604- 268 1.79 312 1.80 210 1.98 201 2.03 246 2.23 226 2.24 372 3.32 367 3.36
                           374 3.43 377 3.44 326 3.54 320 3.55
 395  0.249  0.246  0.604- 252 1.74 267 1.93 211 1.94 200 2.06 184 2.13 225 2.30 369 3.40 377 3.40
                           367 3.44 378 3.47 327 3.52 319 3.58
 396  0.417  0.000  0.605- 288 1.79 255 1.80 249 2.00 201 2.00 191 2.26 234 2.26 372 3.34 376 3.36
                           367 3.36 384 3.39 329 3.58 320 3.58
 397  0.415  0.249  0.591- 193 1.85 200 1.90 232 1.96 248 1.99 302 2.00 289 2.31 319 3.32 334 3.37
                           375 3.43 369 3.50 376 3.51 367 3.55
 398  0.416  0.750  0.594- 205 1.92 290 1.95 229 1.96 189 1.99 287 2.01 256 2.02 331 3.37 321 3.40
                           368 3.41 386 3.45 372 3.49 384 3.49
 399  0.756  0.503  0.595- 285 1.83 292 1.91 228 1.97 254 1.99 187 2.06 209 2.14 349 3.35 365 3.41
                           363 3.48 380 3.49 323 3.52 370 3.54
 400  0.752  0.752  0.590- 227 1.83 283 1.86 186 1.96 293 1.98 208 2.05 250 2.40  28 3.13 362 3.31
                           325 3.35 364 3.45 380 3.47 365 3.52 379 3.56
 401  0.754  0.248  0.594- 284 1.84 190 1.94 231 1.98 253 1.99 294 2.00 206 2.14   3 3.05 335 3.34
                           370 3.39 324 3.42 383 3.42 363 3.42 371 3.50
 402  0.749  0.002  0.604- 295 1.80 251 1.80 286 1.99 207 2.02 230 2.21 185 2.27 379 3.36 371 3.40
                           383 3.43 364 3.44 332 3.55 322 3.56
 403  0.083  0.248  0.604- 301 1.79 296 1.80 203 1.99 211 2.03 196 2.19 237 2.24 378 3.35 315 3.45
                           377 3.48 381 3.49 327 3.52 337 3.53
 404  0.081  0.501  0.603- 298 1.79 300 1.80 198 1.95 214 2.05 236 2.21 195 2.23 373 3.37 381 3.46
                           382 3.47 378 3.47 317 3.47 328 3.60
 405  0.080  0.751  0.603- 313 1.79 305 1.80 199 1.94 212 2.16 235 2.18 194 2.22 373 3.34 366 3.42
                           374 3.43 336 3.47 382 3.59 330 3.60
 406  0.083  0.999  0.604- 304 1.80 299 1.80 202 2.00 210 2.02 192 2.19 238 2.21 315 3.42 374 3.43
                           377 3.45 366 3.46 326 3.51 338 3.52
 407  0.918  0.751  0.603- 261 1.79 307 1.80 199 1.96 283 2.10 217 2.18 240 2.23 365 3.34 366 3.40
                           364 3.48 336 3.49 362 3.59 382 3.61
 408  0.411  0.498  0.593- 204 1.85 188 1.88 233 1.89 303 2.07 247 2.11 291 2.14 318 3.35 368 3.38
                           369 3.43 333 3.50 375 3.54 386 3.59
 409  0.920  0.249  0.603- 281 1.79 260 1.80 203 1.95 284 2.11 242 2.17 153 2.21 363 3.39 315 3.43
                           381 3.45 383 3.47 337 3.48 335 3.59
 410  0.919  0.626  0.506- 218 1.84 240 1.85  75 1.94 273 2.05  83 2.09  64 2.11 317 3.38 336 3.39
                           349 3.42 362 3.43 365 3.45 340 3.54 316 3.59
 411  0.917  0.875  0.507- 239 1.84 217 1.84  77 1.97 274 2.01  70 2.11  63 2.12 362 3.37 338 3.40
                           336 3.40 332 3.41 341 3.58 339 3.59 364 3.89 366 3.96
 412  0.082  0.875  0.507- 192 1.84 235 1.85  77 1.96 183 2.03  60 2.11 143 2.11 330 3.37 336 3.39
                           338 3.40 326 3.44 341 3.57 353 3.60 374 3.85 366 3.98
 413  0.082  0.626  0.506- 236 1.84 194 1.85  75 1.94 278 2.05  59 2.09 142 2.11 336 3.39 317 3.40
                           330 3.42 328 3.42 373 3.45 340 3.54 352 3.59
 414  0.417  0.626  0.501-  57 1.91  80 1.92 189 1.95 146 1.97 272 1.99 233 2.11 321 3.41 344 3.44
                           356 3.44 333 3.45 368 3.46 386 3.46 331 3.46 318 3.48
 415  0.416  0.374  0.501- 145 1.92  81 1.94  58 1.96 232 1.98 270 1.98 188 2.06 343 3.43 318 3.44
                           355 3.44 333 3.45 334 3.46 319 3.47 375 3.48 369 3.50
 416  0.416  0.122  0.503- 234 1.84  76 1.95 144 1.96 197 1.98 193 2.03  68 2.07 320 3.33 329 3.38
                           334 3.46 319 3.47 342 3.48 354 3.50 376 3.69 367 3.87
 417  0.751  0.879  0.503- 185 1.82 274 1.95  52 1.95 297 2.00 227 2.03 151 2.09 332 3.36 322 3.38
                           339 3.48 325 3.48 362 3.48 350 3.50 379 3.72 364 3.94
 418  0.249  0.125  0.507- 226 1.84 184 1.87 181 1.95  76 2.02 152 2.10  51 2.13 319 3.37 326 3.39
                           327 3.39 320 3.40 360 3.57 342 3.60 367 3.76 377 3.96
 419  0.248  0.624  0.503- 224 1.89 278 1.90 215 1.97 155 2.00  69 2.01  80 2.08 318 3.41 328 3.41
                           368 3.44 330 3.46 352 3.46 321 3.49 344 3.52 373 3.65
 420  0.247  0.374  0.503- 225 1.85 277 1.90 213 1.96 154 1.99  65 2.06  81 2.08 369 3.27 327 3.38
                           319 3.42 328 3.43 318 3.44 351 3.45 343 3.54 378 3.70
 421  0.082  0.375  0.506- 237 1.84 195 1.84  74 1.95 277 2.02 141 2.10  61 2.11 337 3.39 328 3.40
                           317 3.42 327 3.45 361 3.55 351 3.59 378 3.61 381 3.98
 422  0.753  0.375  0.503- 275 1.90 187 1.92 231 1.98  54 1.99 149 1.99  82 2.06 370 3.35 349 3.41
                           323 3.41 335 3.45 359 3.45 324 3.50 347 3.52 363 3.65
 423  0.751  0.122  0.505- 230 1.84 190 1.94 276 1.95  79 2.01 148 2.02  55 2.11 332 3.36 322 3.38
                           324 3.43 335 3.46 358 3.53 346 3.55 371 3.79 383 3.97
 424  0.417  0.877  0.504- 191 1.85 229 1.96  78 1.97 271 1.98  56 1.99 147 2.09 329 3.38 320 3.41
                           331 3.42 321 3.42 345 3.51 357 3.51 372 3.52 384 3.69
 425  0.249  0.879  0.502- 246 1.84 183 1.93  89 1.94  78 2.01 223 2.06 156 2.07 326 3.37 320 3.39
                           353 3.46 330 3.47 321 3.48 345 3.49 372 3.60 374 3.97
 426  0.583  0.123  0.505- 222 1.85 216 1.94  79 1.96 197 1.99  92 2.02  71 2.09 322 3.37 329 3.39
                           334 3.40 324 3.41 354 3.53 346 3.53 376 3.63 371 3.75
 427  0.584  0.627  0.501-  87 1.91 245 1.92  90 1.94 272 1.97  91 1.99 219 2.09 325 3.38 386 3.39
                           380 3.40 331 3.41 348 3.43 356 3.44 333 3.45 323 3.49
 428  0.584  0.374  0.502- 221 1.90  82 1.94 158 1.95 270 1.99  88 2.01 244 2.05 375 3.40 334 3.42
                           333 3.43 324 3.43 370 3.45 323 3.46 347 3.46 355 3.47
 429  0.919  0.375  0.506- 153 1.85 243 1.85  74 1.94 275 2.04  67 2.09  84 2.10 337 3.39 317 3.41
                           349 3.41 335 3.43 363 3.53 361 3.54 359 3.59 381 3.98
 430  0.918  0.125  0.507- 182 1.84 242 1.84  72 1.97 276 2.01  66 2.11  85 2.12 335 3.38 338 3.40
                           332 3.41 337 3.41 385 3.57 358 3.59 315 3.92 383 3.95
 431  0.584  0.876  0.506- 241 1.84 220 1.92 297 1.96 271 1.99  86 2.06  73 2.10 325 3.38 331 3.38
                           322 3.38 329 3.40 350 3.55 357 3.56 379 3.60 384 3.64
 432  0.752  0.624  0.503- 273 1.90 228 1.96 186 1.97  53 1.97 150 1.99  90 2.06 380 3.41 349 3.42
[...]
  273            m_sumb_d                              0.406870                       42   5
  274          m_sumb_d                              0.000612                          7   4
  275        setdij_                               5.420979                          140   3
  276          m_sumb_d                              1.447505                        140   4
  277        set_dd_magatom                        0.000017                            7   3
  278        set_dd_paw                            0.087117                            7   3
  279          set_rsgf_all                          0.000015                          7   4
  280          m_sumb_d                              0.085500                         49   4
  281        strkin                                0.040591                            7   3
  282          m_sumb_d                              0.003778                          7   4
  283        strelo                                0.039900                            7   3
  284          m_sumb_d                              0.003338                         14   4
  285        strnlr                               48.096982                            7   3
  286          rspher_all                            2.227134                         63   4
  287          phaser                                0.000039                         63   4
  288          rpro_isp                             45.412126                         63   4
  289            fftwav_mpi                           34.374114                     8820   5
  290              fft3d_mpi                            30.790841                   8820   6
  291                fftbrc_mpi                           26.316544                 8820   7
  292                  fftbas_plan_mpi                      26.288550               8820   8
  293                    dfftw_execute                        13.364978            26460   9
  294                    map_forward                           7.516561            17640   9
  295                      map_gather                            0.757111           8820  10
  296                      m_alltoallv_z                         2.708823           8820  10
  297                      map_scatter                           1.630431           8820  10
  298            rpromu                               10.954920                     2205   5
  299              rpromu_gemm                           3.450511                 498330   6
  300              m_sumb_d                              1.148146                   8820   6
  301          m_sumb_d                              0.310252                          7   4
  302        m_sumb_d                              0.017602                           49   3
  303        fft3d_mpi                             4.255034                          497   3
  304          fftbrc_mpi                            4.129445                        497   4
  305            fftbas_plan_mpi                       4.127793                      497   5
  306              dfftw_execute                         0.623020                   1491   6
  307              map_forward                           1.567972                    490   6
  308                map_gather                            0.031101                  245   7
  309                m_alltoallv_z                         1.382367                  245   7
  310                map_scatter                           0.150146                  245   7
  311              map_backward                          1.580420                    504   6
  312                map_gather                            0.121940                  252   7
  313                m_alltoallv_z                         1.381841                  252   7
  314                map_scatter                           0.071615                  252   7
  315        ggaall_grid                           1.342300                            7   3
  316        forhar                                2.885081                            7   3
  317          m_sumb_d                              0.079517                          7   4
  318        strehar                               0.042852                            7   3
  319          m_sumb_d                              0.003675                          7   4
  320        m_bcast_d                             0.005253                           14   3
  321      potlok                               72.048982                             13   2
  322        fft3d_mpi                            26.833126                         2741   3
  323          fftbrc_mpi                           26.134616                       2741   4
  324            fftbas_plan_mpi                      26.124822                     2741   5
  325              dfftw_execute                         3.504853                   8223   6
  326              map_forward                          11.025946                   2754   6
  327                map_gather                            0.188062                 1390   7
  328                m_alltoallv_z                         9.972658                 1390   7
  329                map_scatter                           0.838263                 1390   7
  330              map_backward                          9.608516                   2728   6
  331                map_gather                            0.675821                 1364   7
  332                m_alltoallv_z                         8.517971                 1364   7
  333                map_scatter                           0.388005                 1364   7
  334        ggaall_grid                          19.197201                          237   3
  335        m_sumb_d                              0.288322                         1224   3
  336        fewald                                0.019020                           26   3
  337          rsp                                   0.017430                         26   4
  338          rcp                                   0.001367                         26   4
  339        pothar                                0.024894                           13   3
  340          m_sumb_d                              0.018058                         13   4
  341        m_bcast_d                             0.049074                           13   3
  342      potlok_metagga                        0.000022                             13   2
  343      set_dd_magatom                        0.000014                              7   2
  344      set_dd_paw                            0.159894                             13   2
  345        set_rsgf_all                          0.000047                           13   3
  346        m_sumb_d                              0.155923                           91   3
  347      m_sumb_d                             52.238385                           3518   2
  348      wavpre_noio                           1.652309                              6   2
  349        stufak                                1.570821                            6   3
  350      eddiag                              134.122412                              6   2
  351        overl                                 0.008114                            6   3
  352        redis_proj                            0.637717                           18   3
  353          m_alltoall_d                          0.630458                       2520   4
  354        fftwav_mpi                            3.326819                          840   3
  355          fft3d_mpi                             2.981039                        840   4
  356            fftbrc_mpi                            2.530799                      840   5
  357              fftbas_plan_mpi                       2.527995                    840   6
  358                dfftw_execute                         1.281912                 2520   7
  359                map_forward                           0.748512                 1680   7
  360                  map_gather                            0.075595                840   8
  361                  m_alltoallv_z                         0.277970                840   8
  362                  map_scatter                           0.155124                840   8
  363        hamilt_local                          2.990492                          840   3
  364          vhamil                                0.398159                        840   4
  365          kinhamil                              2.585118                        840   4
  366            fftext_mpi                            2.554894                      840   5
  367              fft3d_mpi                             2.496667                    840   6
  368                fftbrc_mpi                            2.103475                  840   7
  369                  fftbas_plan_mpi                       2.100660                840   8
  370                    dfftw_execute                         1.104795             2520   9
  371                    map_backward                          0.505492             1680   9
  372                      map_gather                            0.133110            840  10
  373                      m_alltoallv_z                         0.242981            840  10
  374                      map_scatter                           0.115563            840  10
  375        redis_pw                              1.714171                          846   3
  376          m_alltoall_d                          1.649227                       2520   4
  377        orth1                                 1.723955                          420   3
  378        m_sumb_d                              1.641714                            6   3
  379        shift_bands_between_low_high          0.000007                            6   3
  380        lincom                                1.823401                            6   3
 
 Flat profile
 ============
 
             routine name                   CPU           calls
 ---------------------------------------------------------------
 edwav                                3472.303423         326
 potlok                                606.928051         339
 total_time                            477.413357           1
 m_alltoall_d                          341.692195      791700
 m_sumb_d                              290.778590      337896
 dfftw_execute                         281.027420      591456
 lincom                                255.757523         998
 eddiag                                230.369195         176
 m_alltoallv_z                         228.751800      197824
 orth1                                 161.518621       47040
 fftbas_plan_mpi                       125.059550      197152
 choleski                              115.077736         333
 fft3d_mpi                              91.462336      197152
 ggaall_grid                            82.926877         570
 fftwav_mpi                             49.430762      121981
 eccp                                   44.263884       91280
 map_scatter                            41.691972      197824
 map_forward                            34.208119      271348
 racc0                                  34.204823       22820
 rpro1                                  32.479989       22820
 map_gather                             26.810249      197824
 pw_charge                              17.258121       38961
 setdij_                                15.149172         522
 force_and_stress                       12.703736           7
 vhamil                                 11.850968       24640
 augmentation_charge                    10.676002         333
 rpromu                                  9.174939        3185
 m_bcast_z                               9.030152        2381
 w1_dscal                                7.321954       22820
 redis_pw                                5.306871       93942
 rpromu_gemm                             4.957789      719810
 orthch                                  3.472311         333
 fftext_mpi                              3.347293       47460
 rspher_all                              3.193965          92
 forloc                                  2.813108           7
 forhar                                  2.805564           7
 redis_proj                              2.373681       72106
 stufak                                  1.832733           7
 overl                                   1.435766       23492
 m_bcast_d                               1.346653         369
 elmin_all                               1.235302           7
 map_backward                            1.046277      122956
 kinhamil                                0.797879       24640
 soft_charge                             0.768229         333
 densta                                  0.635437         334
 fftbrc_mpi                              0.631334      197152
 rsp                                     0.514187         685
 depsum                                  0.374674         333
 hamilt_local                            0.192416       24640
 pothar                                  0.172145         339
 rpro_isp                                0.154475          91
 strnlr                                  0.147431           7
 set_dd_paw                              0.114026         346
 set_charge                              0.087854         333
 wavpre_noio                             0.081488           6
 fewald                                  0.061046         685
 fft_gq                                  0.058496         333
 rcp                                     0.040959         685
 fornlr                                  0.039975           7
 strehar                                 0.039177           7
 strkin                                  0.036812           7
 strelo                                  0.036562           7
 redis_pw_all                            0.002100         326
 fordep                                  0.001666           7
 redis_pw_over_bands                     0.001292         339
 set_rsgf_all                            0.000835         346
 brgrid                                  0.000731           1
 potlok_metagga                          0.000618         339
 crpa_reader                             0.000265           1
 phaser                                  0.000195         254
 proall                                  0.000083           7
 rotate_active_occupied_orbital          0.000062           7
 vectorpot                               0.000032           1
 set_dd_magatom                          0.000031          14
 shift_bands_between_low_high            0.000015          13
 ---------------------------------------------------------------
  summed up times    7157.48135590553     
 
 Accumulative profile
 ====================
 
             routine name                   CPU           calls
 ---------------------------------------------------------------
 total_time                           7155.296882           1
 elmin_all                            6292.607314           7
 edwav                                4991.891194         326
 potlok                                932.469714         339
 fft3d_mpi                             828.504581      197152
 fftbrc_mpi                            737.042245      197152
 fftbas_plan_mpi                       736.410912      197152
 fftwav_mpi                            487.015317      121981
 orthch                                385.555593         333
 eddiag                                361.919853         176
 m_alltoall_d                          341.692195      791700
 m_sumb_d                              290.778590      337896
 dfftw_execute                         281.027420      591456
 lincom                                255.757523         998
 m_alltoallv_z                         228.751800      197824
 map_forward                           214.433797      271348
 set_charge                            193.996099         333
 redis_proj                            183.096326       72106
 soft_charge                           177.739097         333
 redis_pw                              166.276421       93942
 orth1                                 161.518621       47040
 fftext_mpi                            144.280101       47460
 map_backward                          118.074619      122956
 choleski                              115.077736         333
 force_and_stress                       95.483986           7
 hamilt_local                           87.637968       24640
 ggaall_grid                            82.926877         570
 kinhamil                               75.594584       24640
 rpro_isp                               65.662477          91
 eccp                                   49.871830       91280
 strnlr                                 48.096982           7
 racc0                                  46.835229       22820
 map_scatter                            41.691972      197824
 rpro1                                  37.089591       22820
 redis_pw_over_bands                    26.905243         339
 redis_pw_all                           26.903951         326
 map_gather                             26.810249      197824
 setdij_                                20.513232         522
 pw_charge                              17.258121       38961
 fornlr                                 16.064956           7
 rpromu                                 15.817871        3185
 augmentation_charge                    15.271047         333
 vhamil                                 11.850968       24640
 m_bcast_z                               9.030152        2381
 w1_dscal                                7.321954       22820
 proall                                  5.086483           7
 rpromu_gemm                             4.957789      719810
 set_dd_paw                              4.388534         346
 densta                                  4.256347         334
 rspher_all                              3.193965          92
 forhar                                  2.885081           7
 forloc                                  2.875615           7
 fft_gq                                  1.984007         333
 stufak                                  1.832733           7
 wavpre_noio                             1.652309           6
 fordep                                  1.605972           7
 overl                                   1.435766       23492
 m_bcast_d                               1.346653         369
 fewald                                  1.019988         685
 depsum                                  0.898101         333
 pothar                                  0.602557         339
 rsp                                     0.514187         685
 strehar                                 0.042852           7
 rcp                                     0.040959         685
 strkin                                  0.040591           7
 strelo                                  0.039900           7
 set_rsgf_all                            0.000835         346
 brgrid                                  0.000731           1
 potlok_metagga                          0.000618         339
 crpa_reader                             0.000265           1
 phaser                                  0.000195         254
 rotate_active_occupied_orbital          0.000062           7
 vectorpot                               0.000032           1
 set_dd_magatom                          0.000031          14
 shift_bands_between_low_high            0.000015          13
 ---------------------------------------------------------------
 
Profiling took   5.151380  1.743472  0.007272  0.006538 seconds
Profiling took   5.840385 seconds
