 vasp.6.3.2 27Jun22 (build Jan 03 2024 23:25:20) gamma-only                     
  
 executed on           IFC15_impi date 2024.06.04  04:41:06
 running  192 mpi-ranks, with    1 threads/rank
 distrk:  each k-point on  192 cores,    1 groups
 distr:  one band on NCORE=   4 cores,   48 groups


--------------------------------------------------------------------------------------------------------


 INCAR:
   ENCUT = 500.000000
   SIGMA = 0.010000
   EDIFF = 1.00e-05
   ALGO = A
   ISMEAR = 0
   NELM = 200
   NSW = 500
   NCORE = 4
   LCHARG = .FALSE.
   LWAVE = .FALSE.
   LREAL = Auto
   IBRION = 2
   EDIFFG = -0.05
   GGA = BF
   LUSE_VDW = .TRUE.
   ZAB_VDW = -1.8867
   LBEEFENS = .TRUE.

 POTCAR:    PAW_PBE C 08Apr2002                   
 POTCAR:    PAW_PBE H 15Jun2001                   
 -----------------------------------------------------------------------------
|                                                                             |
|               ----> ADVICE to this user running VASP <----                  |
|                                                                             |
|     You have switched on vdW-DFT.                                           |
|     This routine was written and supplied by Jiri Klimes. We recommend      |
|     that you carefully read and cite the following publications:            |
|       J. Klimes, D.R. Bowler, A. Michelides                                 |
|          J. Phys.: Cond Matt. 22 022201 (2010)                              |
|       J. Klimes, D.R. Bowler, A. Michelides                                 |
|          Phys. Rev. B. 83, 195131 (2011)                                    |
|     and references therein.                                                 |
|                                                                             |
 -----------------------------------------------------------------------------

 POTCAR:    PAW_PBE C 08Apr2002                   
   SHA256 =  253f7b50bb8d59471dbedb8285d89021f4a42ed1a2c5d38a03a736e69125dd95 C/POTCAR              
   COPYR  = (c) Copyright 08Apr2002 Georg Kresse                                                    
   COPYR  = This file is part of the software VASP. Any use, copying, and all other rights are regul
   COPYR  = If you do not have a valid VASP license, you may not use, copy or distribute this file. 
   VRHFIN =C: s2p2                                                                                  
   LEXCH  = PE                                                                                      
   EATOM  =   147.1560 eV,   10.8157 Ry                                                             
                                                                                                    
   TITEL  = PAW_PBE C 08Apr2002                                                                     
   LULTRA =        F    use ultrasoft PP ?                                                          
   IUNSCR =        1    unscreen: 0-lin 1-nonlin 2-no                                               
   RPACOR =    1.200    partial core radius                                                         
   POMASS =   12.011; ZVAL   =    4.000    mass and valenz                                          
   RCORE  =    1.500    outmost cutoff radius                                                       
   RWIGS  =    1.630; RWIGS  =    0.863    wigner-seitz radius (au A)                               
   ENMAX  =  400.000; ENMIN  =  300.000 eV                                                          
   ICORE  =        2    local potential                                                             
   LCOR   =        T    correct aug charges                                                         
   LPAW   =        T    paw PP                                                                      
   EAUG   =  644.873                                                                                
   DEXC   =    0.000                                                                                
   RMAX   =    1.529    core radius for proj-oper                                                   
   RAUG   =    1.300    factor for augmentation sphere                                              
   RDEP   =    1.501    radius for radial grids                                                     
   RDEPT  =    1.300    core radius for aug-charge                                                  
                                                                                                    
   Atomic configuration                                                                             
    4 entries                                                                                       
     n  l   j            E        occ.                                                              
     1  0  0.50      -273.3789   2.0000                                                             
     2  0  0.50       -13.7508   2.0000                                                             
     2  1  0.50        -5.2854   2.0000                                                             
     3  2  1.50        -5.4423   0.0000                                                             
   Description                                                                                      
     l       E           TYP  RCUT    TYP  RCUT                                                     
     0    -13.7508458     23  1.200                                                                 
     0     -8.2022199     23  1.200                                                                 
     1     -5.2854383     23  1.500                                                                 
     1     34.0145650     23  1.500                                                                 
     2     -5.4423304      7  1.500                                                                 
  local pseudopotential read in
  partial core-charges read in
  partial kinetic energy density read in
  atomic valenz-charges read in
  non local Contribution for L=           0  read in
    real space projection operators read in
  non local Contribution for L=           0  read in
    real space projection operators read in
  non local Contribution for L=           1  read in
    real space projection operators read in
  non local Contribution for L=           1  read in
    real space projection operators read in
    PAW grid and wavefunctions read in
 
   number of l-projection  operators is LMAX  =           4
   number of lm-projection operators is LMMAX =           8
 
 POTCAR:    PAW_PBE H 15Jun2001                   
   SHA256 =  030f79b5d3ab3cf0e668861823c8fb652ff669f3e15e46930bd03bfd63a607b6 H/POTCAR              
   COPYR  = (c) Copyright 15Jun2001 Georg Kresse                                                    
   COPYR  = This file is part of the software VASP. Any use, copying, and all other rights are regul
   COPYR  = If you do not have a valid VASP license, you may not use, copy or distribute this file. 
   VRHFIN =H: ultrasoft test                                                                        
   LEXCH  = PE                                                                                      
   EATOM  =    12.4884 eV,    0.9179 Ry                                                             
                                                                                                    
   TITEL  = PAW_PBE H 15Jun2001                                                                     
   LULTRA =        F    use ultrasoft PP ?                                                          
   IUNSCR =        0    unscreen: 0-lin 1-nonlin 2-no                                               
   RPACOR =    0.000    partial core radius                                                         
   POMASS =    1.000; ZVAL   =    1.000    mass and valenz                                          
   RCORE  =    1.100    outmost cutoff radius                                                       
   RWIGS  =    0.700; RWIGS  =    0.370    wigner-seitz radius (au A)                               
   ENMAX  =  250.000; ENMIN  =  200.000 eV                                                          
   RCLOC  =    0.701    cutoff for local pot                                                        
   LCOR   =        T    correct aug charges                                                         
   LPAW   =        T    paw PP                                                                      
   EAUG   =  400.000                                                                                
   RMAX   =    1.123    core radius for proj-oper                                                   
   RAUG   =    1.200    factor for augmentation sphere                                              
   RDEP   =    1.112    radius for radial grids                                                     
   RDEPT  =    0.926    core radius for aug-charge                                                  
                                                                                                    
   Atomic configuration                                                                             
    2 entries                                                                                       
     n  l   j            E        occ.                                                              
     1  0  0.50        -6.4927   1.0000                                                             
     2  1  0.50        -3.4015   0.0000                                                             
   Description                                                                                      
     l       E           TYP  RCUT    TYP  RCUT                                                     
     0     -6.4927494     23  1.100                                                                 
     0      6.8029130     23  1.100                                                                 
     1     -4.0817478     23  1.100                                                                 
  local pseudopotential read in
  atomic valenz-charges read in
  non local Contribution for L=           0  read in
    real space projection operators read in
  non local Contribution for L=           0  read in
    real space projection operators read in
  non local Contribution for L=           1  read in
    real space projection operators read in
    PAW grid and wavefunctions read in
 
   number of l-projection  operators is LMAX  =           3
   number of lm-projection operators is LMMAX =           5
 
 Optimization of the real space projectors (new method)

 maximal supplied QI-value         = 25.13
 optimisation between [QCUT,QGAM] = [ 11.31, 22.87] = [ 35.82,146.48] Ry 
 Optimized for a Real-space Cutoff    1.00 Angstroem

   l    n(q)    QCUT    max X(q) W(low)/X(q) W(high)/X(q)  e(spline) 
   0      7    11.310   115.676    0.43E-03    0.13E-02    0.19E-06
   0      7    11.310    87.132    0.43E-03    0.13E-02    0.18E-06
   1      6    11.310     4.429    0.42E-03    0.74E-03    0.11E-06
   1      6    11.310     2.733    0.34E-03    0.55E-03    0.92E-07
 Optimization of the real space projectors (new method)

 maximal supplied QI-value         = 34.20
 optimisation between [QCUT,QGAM] = [ 11.29, 22.57] = [ 35.68,142.71] Ry 
 Optimized for a Real-space Cutoff    1.16 Angstroem

   l    n(q)    QCUT    max X(q) W(low)/X(q) W(high)/X(q)  e(spline) 
   0      8    11.287    19.460    0.40E-03    0.73E-03    0.16E-06
   0      8    11.287    12.209    0.38E-03    0.70E-03    0.15E-06
   1      7    11.287     4.655    0.22E-03    0.25E-04    0.22E-06
 -----------------------------------------------------------------------------
|                                                                             |
|               ----> ADVICE to this user running VASP <----                  |
|                                                                             |
|     You enforced a specific xc type in the INCAR file but a different       |
|     type was found in the POTCAR file.                                      |
|     I HOPE YOU KNOW WHAT YOU ARE DOING!                                     |
|                                                                             |
 -----------------------------------------------------------------------------

  PAW_PBE C 08Apr2002                   :
 energy of atom  1       EATOM= -147.1560
 kinetic energy error for atom=    0.0076 (will be added to EATOM!!)
  PAW_PBE H 15Jun2001                   :
 energy of atom  2       EATOM=  -12.4884
 kinetic energy error for atom=    0.0020 (will be added to EATOM!!)
 
 
 POSCAR: C  H
  positions in cartesian coordinates
  No initial velocities read in
 exchange correlation table for  LEXCH =       17
   RHO(1)=    0.500       N(1)  =     2000
   RHO(2)=  100.500       N(2)  =     4000

 VTST: version 4.1, (05/19/21)

 CHAIN: initializing optimizer
 
 OPT: Using VASP Conjugate-Gradient optimizer
 CHAIN: Read ICHAIN            0
 
 POSCAR: C  H
  positions in cartesian coordinates
  No initial velocities read in
 


--------------------------------------------------------------------------------------------------------


 ion  position               nearest neighbor table
   1  0.500  0.485  0.436-  20 1.10  15 1.10   6 1.53   5 1.53
   2  0.500  0.485  0.606-   8 1.09  10 1.09   9 1.09   4 1.53
   3  0.500  0.485  0.521-  13 1.10  14 1.10   5 1.53   4 1.53
   4  0.500  0.516  0.564-  12 1.10  11 1.10   2 1.53   3 1.53
   5  0.500  0.515  0.479-  18 1.10  19 1.10   3 1.53   1 1.53
   6  0.500  0.515  0.393-   7 1.09  17 1.09  16 1.09   1 1.53
   7  0.500  0.492  0.364-   6 1.09
   8  0.500  0.506  0.637-   2 1.09
   9  0.537  0.462  0.607-   2 1.09
  10  0.463  0.462  0.607-   2 1.09
  11  0.463  0.539  0.564-   4 1.10
  12  0.537  0.539  0.564-   4 1.10
  13  0.537  0.462  0.522-   3 1.10
  14  0.463  0.462  0.522-   3 1.10
  15  0.463  0.461  0.436-   1 1.10
  16  0.537  0.538  0.392-   6 1.09
  17  0.463  0.538  0.392-   6 1.09
  18  0.463  0.539  0.478-   5 1.10
  19  0.537  0.539  0.478-   5 1.10
  20  0.537  0.461  0.436-   1 1.10
 
  LATTYP: Found a simple orthorhombic cell.
 ALAT       =    23.6707801819
 B/A-ratio  =     1.1785113316
 C/A-ratio  =     1.2673853489
  
  Lattice vectors:
  
 A1 = (  23.6707801819,   0.0000000000,   0.0000000000)
 A2 = (   0.0000000000,  27.8962826733,   0.0000000000)
 A3 = (   0.0000000000,   0.0000000000,  30.0000000000)


Analysis of symmetry for initial positions (statically):
=====================================================================
 Subroutine PRICEL returns:
 Original cell was already a primitive cell.
 

 Routine SETGRP: Setting up the symmetry group for a 
 simple orthorhombic supercell.


 Subroutine GETGRP returns: Found  1 space group operations
 (whereof  1 operations were pure point group operations)
 out of a pool of  8 trial point group operations.


The static configuration has the point symmetry C_1 .


Analysis of symmetry for dynamics (positions and initial velocities):
=====================================================================
 Subroutine PRICEL returns:
 Original cell was already a primitive cell.
 

 Routine SETGRP: Setting up the symmetry group for a 
 simple orthorhombic supercell.


 Subroutine GETGRP returns: Found  1 space group operations
 (whereof  1 operations were pure point group operations)
 out of a pool of  8 trial point group operations.


The dynamic configuration has the point symmetry C_1 .


 Subroutine INISYM returns: Found  1 space group operations
 (whereof  1 operations are pure point group operations),
 and found     1 'primitive' translations


----------------------------------------------------------------------------------------

                                     Primitive cell                                     

  volume of cell :   19809.8033

  direct lattice vectors                    reciprocal lattice vectors
    23.670780182  0.000000000  0.000000000     0.042246178  0.000000000  0.000000000
     0.000000000 27.896282673  0.000000000     0.000000000  0.035847070  0.000000000
     0.000000000  0.000000000 30.000000000     0.000000000  0.000000000  0.033333333

  length of vectors
    23.670780182 27.896282673 30.000000000     0.042246178  0.035847070  0.033333333

  position of ions in fractional coordinates (direct lattice)
     0.499965214  0.484667208  0.436125242
     0.500035493  0.484621842  0.606318972
     0.500029807  0.485455995  0.521431108
     0.500053151  0.515542599  0.564153827
     0.499977924  0.515144978  0.478548225
     0.499941894  0.514686936  0.393438296
     0.499938107  0.492057096  0.363686263
     0.500015342  0.506352142  0.636593209
     0.537369944  0.461519851  0.607420776
     0.462712637  0.461505080  0.607372442
     0.463060091  0.539212481  0.564168360
     0.537056313  0.539194363  0.564161128
     0.537086719  0.461772608  0.521636509
     0.462981506  0.461746182  0.521678200
     0.462914668  0.461047481  0.436346173
     0.537234133  0.537789356  0.391835624
     0.462650664  0.537784792  0.391848429
     0.462884726  0.538760161  0.478390259
     0.537050774  0.538790036  0.478351654
     0.537002880  0.461043757  0.436324259

  ion indices of the primitive-cell ions
   primitive index   ion index
                 1           1
                 2           2
                 3           3
                 4           4
                 5           5
                 6           6
                 7           7
                 8           8
                 9           9
                10          10
                11          11
                12          12
                13          13
                14          14
                15          15
                16          16
                17          17
                18          18
                19          19
                20          20

----------------------------------------------------------------------------------------

 
 
 KPOINTS: KPOINTS created by Atomic Simulation Env

Automatic generation of k-mesh.
 Grid dimensions read from file:
 generate k-points for:    1    1    1

 Generating k-lattice:

  Cartesian coordinates                     Fractional coordinates (reciprocal lattice)
     0.042246178  0.000000000  0.000000000     1.000000000  0.000000000  0.000000000
     0.000000000  0.035847070  0.000000000     0.000000000  1.000000000  0.000000000
     0.000000000  0.000000000  0.033333333     0.000000000  0.000000000  1.000000000

  Length of vectors
     0.042246178  0.035847070  0.033333333

  Shift w.r.t. Gamma in fractional coordinates (k-lattice)
     0.000000000  0.000000000  0.000000000

 
 Subroutine IBZKPT returns following result:
 ===========================================
 
 Found      1 irreducible k-points:
 
 Following reciprocal coordinates:
            Coordinates               Weight
  0.000000  0.000000  0.000000      1.000000
 
 Following cartesian coordinates:
            Coordinates               Weight
  0.000000  0.000000  0.000000      1.000000
 


--------------------------------------------------------------------------------------------------------




 Dimension of arrays:
   k-points           NKPTS =      1   k-points in BZ     NKDIM =      1   number of bands    NBANDS=     48
   number of dos      NEDOS =    301   number of ions     NIONS =     20
   non local maximal  LDIM  =      4   non local SUM 2l+1 LMDIM =      8
   total plane-waves  NPLWV = ******
   max r-space proj   IRMAX =   1304   max aug-charges    IRDMAX=   2441
   dimension x,y,z NGX =   140 NGY =  160 NGZ =  168
   dimension x,y,z NGXF=   280 NGYF=  320 NGZF=  336
   support grid    NGXF=   280 NGYF=  320 NGZF=  336
   ions per type =               6  14
   NGX,Y,Z   is equivalent  to a cutoff of   9.83,  9.54,  9.31 a.u.
   NGXF,Y,Z  is equivalent  to a cutoff of  19.67, 19.07, 18.62 a.u.

 SYSTEM =  unknown system                          
 POSCAR =  C  H                                    

 Startparameter for this run:
   NWRITE =      2    write-flag & timer
   PREC   = normal    normal or accurate (medium, high low for compatibility)
   ISTART =      0    job   : 0-new  1-cont  2-samecut
   ICHARG =      2    charge: 1-file 2-atom 10-const
   ISPIN  =      1    spin polarized calculation?
   LNONCOLLINEAR =      F non collinear calculations
   LSORBIT =      F    spin-orbit coupling
   INIWAV =      1    electr: 0-lowe 1-rand  2-diag
   LASPH  =      F    aspherical Exc in radial PAW
 Electronic Relaxation 1
   ENCUT  =  500.0 eV  36.75 Ry    6.06 a.u.  43.16 50.86 54.70*2*pi/ulx,y,z
   ENINI  =  500.0     initial cutoff
   ENAUG  =  644.9 eV  augmentation charge cutoff
   NELM   =    200;   NELMIN=  2; NELMDL= -5     # of ELM steps 
   EDIFF  = 0.1E-04   stopping-criterion for ELM
   LREAL  =      T    real-space projection
   NLSPLINE    = F    spline interpolate recip. space projectors
   LCOMPAT=      F    compatible to vasp.4.4
   GGA_COMPAT  = T    GGA compatible to vasp.4.4-vasp.4.6
   LMAXPAW     = -100 max onsite density
   LMAXMIX     =    2 max onsite mixed and CHGCAR
   VOSKOWN=      0    Vosko Wilk Nusair interpolation
   ROPT   =   -0.00050  -0.00050
 Ionic relaxation
   EDIFFG = -.5E-01   stopping-criterion for IOM
   NSW    =    500    number of steps for IOM
   NBLOCK =      1;   KBLOCK =    500    inner block; outer block 
   IBRION =      2    ionic relax: 0-MD 1-quasi-New 2-CG
   NFREE  =      1    steps in history (QN), initial steepest desc. (CG)
   ISIF   =      2    stress and relaxation
   IWAVPR =     11    prediction:  0-non 1-charg 2-wave 3-comb
   ISYM   =      2    0-nonsym 1-usesym 2-fastsym
   LCORR  =      T    Harris-Foulkes like correction to forces

   POTIM  = 0.5000    time-step for ionic-motion
   TEIN   =    0.0    initial temperature
   TEBEG  =    0.0;   TEEND  =   0.0 temperature during run
   SMASS  =  -3.00    Nose mass-parameter (am)
   estimated Nose-frequenzy (Omega)   =  0.10E-29 period in steps = 0.13E+47 mass=  -0.128E-25a.u.
   SCALEE = 1.0000    scale energy and forces
   NPACO  =    256;   APACO  = 10.0  distance and # of slots for P.C.
   PSTRESS=    0.0 pullay stress

  Mass of Ions in am
   POMASS =  12.01  1.00
  Ionic Valenz
   ZVAL   =   4.00  1.00
  Atomic Wigner-Seitz radii
   RWIGS  =  -1.00 -1.00
  virtual crystal weights 
   VCA    =   1.00  1.00
   NELECT =      38.0000    total number of electrons
   NUPDOWN=      -1.0000    fix difference up-down

 DOS related values:
   EMIN   =  10.00;   EMAX   =-10.00  energy-range for DOS
   EFERMI =   0.00
   ISMEAR =     0;   SIGMA  =   0.01  broadening in eV -4-tet -1-fermi 0-gaus

 Electronic relaxation 2 (details)
   IALGO  =     58    algorithm
   LDIAG  =      T    sub-space diagonalisation (order eigenvalues)
   LSUBROT=      F    optimize rotation matrix (better conditioning)
   TURBO    =      0    0=normal 1=particle mesh
   IRESTART =      0    0=no restart 2=restart with 2 vectors
   NREBOOT  =      0    no. of reboots
   NMIN     =      0    reboot dimension
   EREF     =   0.00    reference energy to select bands
   IMIX   =      4    mixing-type and parameters
     AMIX     =   0.40;   BMIX     =  1.00
     AMIX_MAG =   1.60;   BMIX_MAG =  1.00
     AMIN     =   0.10
     WC   =   100.;   INIMIX=   1;  MIXPRE=   1;  MAXMIX= -45

 Intra band minimization:
   WEIMIN = 0.0010     energy-eigenvalue tresh-hold
   EBREAK =  0.52E-07  absolut break condition
   DEPER  =   0.30     relativ break condition  

   TIME   =   0.40     timestep for ELM

  volume/ion in A,a.u.               =     990.49      6684.16
  Fermi-wavevector in a.u.,A,eV,Ry     =   0.203412  0.384392  0.562959  0.041376
  Thomas-Fermi vector in A             =   0.961705
 
 Write flags
   LWAVE        =      F    write WAVECAR
   LDOWNSAMPLE  =      F    k-point downsampling of WAVECAR
   LCHARG       =      F    write CHGCAR
   LVTOT        =      F    write LOCPOT, total local potential
   LVHAR        =      F    write LOCPOT, Hartree potential only
   LELF         =      F    write electronic localiz. function (ELF)
   LORBIT       =      0    0 simple, 1 ext, 2 COOP (PROOUT), +10 PAW based schemes


 Dipole corrections
   LMONO  =      F    monopole corrections only (constant potential shift)
   LDIPOL =      F    correct potential (dipole corrections)
   IDIPOL =      0    1-x, 2-y, 3-z, 4-all directions 
   EPSILON=  1.0000000 bulk dielectric constant

 Exchange correlation treatment:
   GGA     =    BF    GGA type
   LEXCH   =    17    internal setting for exchange type
   LIBXC   =     F    Libxc                    
   VOSKOWN =     0    Vosko Wilk Nusair interpolation
   LHFCALC =     F    Hartree Fock is set to
   LHFONE  =     F    Hartree Fock one center treatment
   AEXX    =    0.0000 exact exchange contribution

 vdW DFT:
   LUSE_VDW   =     T    switch on vdW DFT
   Zab_VDW    =******    correlation parameter
   PARAM1     =0.1234
   PARAM2     =1.0000
   PARAM3     =0.0000
   -- rVV10 --
   BPARAM     = 6.3000
   CPARAM     = 0.0093

 Linear response parameters
   LEPSILON=     F    determine dielectric tensor
   LRPA    =     F    only Hartree local field effects (RPA)
   LNABLA  =     F    use nabla operator in PAW spheres
   LVEL    =     F    velocity operator in full k-point grid
   CSHIFT  =0.1000    complex shift for real part using Kramers Kronig
   OMEGAMAX=  -1.0    maximum frequency
   DEG_THRESHOLD= 0.2000000E-02 threshold for treating states as degnerate
   RTIME   =   -0.100 relaxation time in fs
  (WPLASMAI=    0.000 imaginary part of plasma frequency in eV, 0.658/RTIME)
   DFIELD  = 0.0000000 0.0000000 0.0000000 field for delta impulse in time
 
  Optional k-point grid parameters
   LKPOINTS_OPT  =     F    use optional k-point grid
   KPOINTS_OPT_MODE=     1    mode for optional k-point grid
 
 Orbital magnetization related:
   ORBITALMAG=     F  switch on orbital magnetization
   LCHIMAG   =     F  perturbation theory with respect to B field
   DQ        =  0.001000  dq finite difference perturbation B field
   LLRAUG    =     F  two centre corrections for induced B field



--------------------------------------------------------------------------------------------------------


 conjugate gradient relaxation of ions
 charge density and potential will be updated during run
 non-spin polarized calculation
 Conjugate gradient for all bands (Freysoldt, et al. PRB 79, 241103 (2009))
 preconditioned conjugated gradient                                        
 perform sub-space diagonalisation
    before iterative eigenvector-optimisation
 modified Broyden-mixing scheme, WC =      100.0
 initial mixing is a Kerker type mixing with AMIX =  0.4000 and BMIX =      1.0000
 Hartree-type preconditioning will be used
 using additional bands           29
 real space projection scheme for non local part
 use partial core corrections
 no Harris-corrections to forces 
 use gradient corrections 
 use of overlap-Matrix (Vanderbilt PP)
 Gauss-broadening in eV      SIGMA  =   0.01


--------------------------------------------------------------------------------------------------------


  energy-cutoff  :      500.00
  volume of cell :    19809.80
      direct lattice vectors                 reciprocal lattice vectors
    23.670780182  0.000000000  0.000000000     0.042246178  0.000000000  0.000000000
     0.000000000 27.896282673  0.000000000     0.000000000  0.035847070  0.000000000
     0.000000000  0.000000000 30.000000000     0.000000000  0.000000000  0.033333333

  length of vectors
    23.670780182 27.896282673 30.000000000     0.042246178  0.035847070  0.033333333


 
 k-points in units of 2pi/SCALE and weight: KPOINTS created by Atomic Simulation Env
   0.00000000  0.00000000  0.00000000       1.000
 
 k-points in reciprocal lattice and weights: KPOINTS created by Atomic Simulation Env
   0.00000000  0.00000000  0.00000000       1.000
 
 position of ions in fractional coordinates (direct lattice) 
   0.49996521  0.48466721  0.43612524
   0.50003549  0.48462184  0.60631897
   0.50002981  0.48545600  0.52143111
   0.50005315  0.51554260  0.56415383
   0.49997792  0.51514498  0.47854822
   0.49994189  0.51468694  0.39343830
   0.49993811  0.49205710  0.36368626
   0.50001534  0.50635214  0.63659321
   0.53736994  0.46151985  0.60742078
   0.46271264  0.46150508  0.60737244
   0.46306009  0.53921248  0.56416836
   0.53705631  0.53919436  0.56416113
   0.53708672  0.46177261  0.52163651
   0.46298151  0.46174618  0.52167820
   0.46291467  0.46104748  0.43634617
   0.53723413  0.53778936  0.39183562
   0.46265066  0.53778479  0.39184843
   0.46288473  0.53876016  0.47839026
   0.53705077  0.53879004  0.47835165
   0.53700288  0.46104376  0.43632426
 
 position of ions in cartesian coordinates  (Angst):
  11.83456667 13.52041344 13.08375727
  11.83623023 13.51914791 18.18956915
  11.83609565 13.54241768 15.64293323
  11.83664821 14.38172206 16.92461482
  11.83486754 14.37062992 14.35644675
  11.83401468 14.35785225 11.80314888
  11.83392503 13.72656383 10.91058788
  11.83575325 14.12534248 19.09779627
  12.71996582 12.87468822 18.22262329
  10.95276912 12.87427615 18.22117325
  10.96099362 15.04202380 16.92505080
  12.71254193 15.04151837 16.92483385
  12.71326167 12.88173921 15.64909526
  10.95913346 12.88100201 15.65034601
  10.95755134 12.86151087 13.09038518
  12.71675106 15.00232388 11.75506871
  10.95130217 15.00219659 11.75545287
  10.95684260 15.02940574 14.35170778
  12.71241081 15.03023914 14.35054961
  12.71127713 12.86140697 13.08972776
 


--------------------------------------------------------------------------------------------------------


 use parallel FFT for orbitals z direction half grid
 k-point   1 :   0.0000 0.0000 0.0000  plane waves:  251494

 maximum and minimum number of plane-waves per node :     62879    62871

 maximum number of plane-waves:    251494
 maximum index in each direction: 
   IXMAX=   43   IYMAX=   50   IZMAX=   54
   IXMIN=  -43   IYMIN=  -50   IZMIN=    0


 real space projection operators:
  total allocation   :        959.24 KBytes
  max/ min on nodes  :        243.02        231.13


 parallel 3D FFT for wavefunctions:
    minimum data exchange during FFTs selected (reduces bandwidth)
 parallel 3D FFT for charge:
    minimum data exchange during FFTs selected (reduces bandwidth)


 total amount of memory used by VASP MPI-rank0   110113. kBytes
=======================================================================

   base      :      30000. kBytes
   nonlr-proj:        284. kBytes
   fftplans  :      26989. kBytes
   grid      :      49815. kBytes
   one-center:          7. kBytes
   wavefun   :       3018. kBytes
 
     INWAV:  cpu time      0.0001: real time      0.0001
 Broyden mixing: mesh for mixing (old mesh)
   NGX = 87   NGY =101   NGZ =109
  (NGX  =280   NGY  =320   NGZ  =336)
  gives a total of 957783 points

 initial charge density was supplied:
 charge density of overlapping atoms calculated
 number of electron      38.0000000 magnetization 
 keeping initial charge density in first step


--------------------------------------------------------------------------------------------------------


 Maximum index for non-local projection operator          307
 Maximum index for augmentation-charges            0 (set IRDMAX)


--------------------------------------------------------------------------------------------------------


 First call to EWALD:  gamma=   0.066
 Maximum number of real-space cells 3x 3x 3
 Maximum number of reciprocal cells 2x 3x 3

    FEWALD:  cpu time      0.0073: real time      0.0073


--------------------------------------- Iteration      1(   1)  ---------------------------------------


vdW kernel read from vdw_kernel.bindat
  0.0000  0.2424  0.5071  0.7962  1.1119  1.4567  1.8333  2.2446  2.6937  3.1842
  3.7199  4.3049  4.9438  5.6415  6.4036  7.2358  8.1446  9.1372 10.2212 11.4050
 12.6979 14.1099 15.6519 17.3360 19.1751 21.1837 23.3773 25.7729 28.3892 31.2465
 34.3669 37.7748 41.4965 45.5611 50.0000
 
    POTLOK:  cpu time      9.9275: real time      9.9472
    SETDIJ:  cpu time      0.0106: real time      0.0107
    TRIAL :  cpu time      1.9015: real time      2.0446
    CORREC:  cpu time      0.0011: real time      0.0011
    --------------------------------------------
      LOOP:  cpu time     11.8490: real time     12.0151

 eigenvalue-minimisations  :   192
 total energy-change (2. order) : 0.1274867E+03  (-0.7311876E+03)
 number of electron      38.0000000 magnetization 
 augmentation part       38.0000000 magnetization 

 Free energy of the ion-electron system (eV)
  ---------------------------------------------------
  alpha Z        PSCENC =         0.30179017
  Ewald energy   TEWEN  =      2783.31901849
  -Hartree energ DENC   =     -3421.56243215
  -exchange      EXHF   =         0.00000000
  -V(xc)+E(xc)   XCENC  =       112.90252845
  PAW double counting   =       678.33227421     -684.37415592
  entropy T*S    EENTRO =        -0.00000000
  eigenvalues    EBANDS =      -421.45144326
  atomic energy  EATOM  =      1080.01910064
  ---------------------------------------------------
  free energy    TOTEN  =       127.48668063 eV

  energy without entropy =      127.48668063  energy(sigma->0) =      127.48668063


--------------------------------------------------------------------------------------------------------




--------------------------------------- Iteration      1(   2)  ---------------------------------------


    TRIAL :  cpu time      1.7285: real time      1.7407
    CORREC:  cpu time      0.0005: real time      0.0005
    --------------------------------------------
      LOOP:  cpu time      1.7346: real time      1.7817

 eigenvalue-minimisations  :   192
 total energy-change (2. order) :-0.2133356E+03  (-0.2133356E+03)
 number of electron      38.0000000 magnetization 
 augmentation part       38.0000000 magnetization 

 Free energy of the ion-electron system (eV)
  ---------------------------------------------------
  alpha Z        PSCENC =         0.30179017
  Ewald energy   TEWEN  =      2783.31901849
  -Hartree energ DENC   =     -3421.56243215
  -exchange      EXHF   =         0.00000000
  -V(xc)+E(xc)   XCENC  =       112.90252845
  PAW double counting   =       678.33227421     -684.37415592
  entropy T*S    EENTRO =        -0.00000000
  eigenvalues    EBANDS =      -634.78702648
  atomic energy  EATOM  =      1080.01910064
  ---------------------------------------------------
  free energy    TOTEN  =       -85.84890259 eV

  energy without entropy =      -85.84890259  energy(sigma->0) =      -85.84890259


--------------------------------------------------------------------------------------------------------




--------------------------------------- Iteration      1(   3)  ---------------------------------------


    TRIAL :  cpu time      0.9524: real time      0.9589
    CORREC:  cpu time      0.0006: real time      0.0006
    --------------------------------------------
      LOOP:  cpu time      0.9592: real time      0.9951

 eigenvalue-minimisations  :    96
 total energy-change (2. order) :-0.2621774E+02  (-0.2621774E+02)
 number of electron      38.0000000 magnetization 
 augmentation part       38.0000000 magnetization 

 Free energy of the ion-electron system (eV)
  ---------------------------------------------------
  alpha Z        PSCENC =         0.30179017
  Ewald energy   TEWEN  =      2783.31901849
  -Hartree energ DENC   =     -3421.56243215
  -exchange      EXHF   =         0.00000000
  -V(xc)+E(xc)   XCENC  =       112.90252845
  PAW double counting   =       678.33227421     -684.37415592
  entropy T*S    EENTRO =        -0.00000000
  eigenvalues    EBANDS =      -661.00477058
  atomic energy  EATOM  =      1080.01910064
  ---------------------------------------------------
  free energy    TOTEN  =      -112.06664669 eV

  energy without entropy =     -112.06664669  energy(sigma->0) =     -112.06664669


--------------------------------------------------------------------------------------------------------




--------------------------------------- Iteration      1(   4)  ---------------------------------------


    TRIAL :  cpu time      1.6924: real time      1.7059
    CORREC:  cpu time      0.0006: real time      0.0006
    --------------------------------------------
      LOOP:  cpu time      1.6977: real time      1.7405

 eigenvalue-minimisations  :   192
 total energy-change (2. order) :-0.1187262E+01  (-0.1187262E+01)
 number of electron      38.0000000 magnetization 
 augmentation part       38.0000000 magnetization 

 Free energy of the ion-electron system (eV)
  ---------------------------------------------------
  alpha Z        PSCENC =         0.30179017
  Ewald energy   TEWEN  =      2783.31901849
  -Hartree energ DENC   =     -3421.56243215
  -exchange      EXHF   =         0.00000000
  -V(xc)+E(xc)   XCENC  =       112.90252845
  PAW double counting   =       678.33227421     -684.37415592
  entropy T*S    EENTRO =        -0.00000000
  eigenvalues    EBANDS =      -662.19203302
  atomic energy  EATOM  =      1080.01910064
  ---------------------------------------------------
  free energy    TOTEN  =      -113.25390913 eV

  energy without entropy =     -113.25390913  energy(sigma->0) =     -113.25390913


--------------------------------------------------------------------------------------------------------




--------------------------------------- Iteration      1(   5)  ---------------------------------------


    TRIAL :  cpu time      1.3172: real time      1.3266
    CORREC:  cpu time      0.0004: real time      0.0004
    CHARGE:  cpu time      0.2628: real time      0.2638
    --------------------------------------------
      LOOP:  cpu time      1.5853: real time      1.6269

 eigenvalue-minimisations  :   144
 total energy-change (2. order) :-0.7992298E-03  (-0.7992299E-03)
 number of electron      38.0000018 magnetization 
 augmentation part        1.0494610 magnetization 

 Free energy of the ion-electron system (eV)
  ---------------------------------------------------
  alpha Z        PSCENC =         0.30179017
  Ewald energy   TEWEN  =      2783.31901849
  -Hartree energ DENC   =     -3421.56243215
  -exchange      EXHF   =         0.00000000
  -V(xc)+E(xc)   XCENC  =       112.90252845
  PAW double counting   =       678.33227421     -684.37415592
  entropy T*S    EENTRO =        -0.00000000
  eigenvalues    EBANDS =      -662.19283225
  atomic energy  EATOM  =      1080.01910064
  ---------------------------------------------------
  free energy    TOTEN  =      -113.25470836 eV

  energy without entropy =     -113.25470836  energy(sigma->0) =     -113.25470836


--------------------------------------------------------------------------------------------------------




--------------------------------------- Iteration      1(   6)  ---------------------------------------


    POTLOK:  cpu time      8.2696: real time      8.2798
    SETDIJ:  cpu time      0.0090: real time      0.0090
    TRIAL :  cpu time      0.6101: real time      0.6188
    CORREC:  cpu time      9.1206: real time      9.1305
    CHARGE:  cpu time      0.2488: real time      0.2489
    --------------------------------------------
      LOOP:  cpu time     18.2607: real time     18.3275

 eigenvalue-minimisations  :     0
 total energy-change (2. order) : 0.2475933E+02  (-0.9842612E+01)
 number of electron      38.0000013 magnetization 
 augmentation part        0.9378299 magnetization 

 Free energy of the ion-electron system (eV)
  ---------------------------------------------------
  alpha Z        PSCENC =         0.30179017
  Ewald energy   TEWEN  =      2783.31901849
  -Hartree energ DENC   =     -3828.99615334
  -exchange      EXHF   =         0.00000000
  -V(xc)+E(xc)   XCENC  =       131.21859760
  PAW double counting   =      2735.89082632    -2742.17664758
  entropy T*S    EENTRO =        -0.00000000
  eigenvalues    EBANDS =      -248.07191479
  atomic energy  EATOM  =      1080.01910064
  ---------------------------------------------------
  free energy    TOTEN  =       -88.49538248 eV

  energy without entropy =      -88.49538248  energy(sigma->0) =      -88.49538248


--------------------------------------------------------------------------------------------------------




--------------------------------------- Iteration      1(   7)  ---------------------------------------


    POTLOK:  cpu time      8.6727: real time      8.6841
    SETDIJ:  cpu time      0.0086: real time      0.0086
    TRIAL :  cpu time      0.5743: real time      0.5829
    CORREC:  cpu time      9.2030: real time      9.2150
    CHARGE:  cpu time      0.2405: real time      0.2406
    --------------------------------------------
      LOOP:  cpu time     18.7041: real time     18.7634

 eigenvalue-minimisations  :     0
 total energy-change (2. order) :-0.9894503E+01  (-0.1212164E+01)
 number of electron      38.0000012 magnetization 
 augmentation part        0.8992848 magnetization 

 Free energy of the ion-electron system (eV)
  ---------------------------------------------------
  alpha Z        PSCENC =         0.30179017
  Ewald energy   TEWEN  =      2783.31901849
  -Hartree energ DENC   =     -3660.35132101
  -exchange      EXHF   =         0.00000000
  -V(xc)+E(xc)   XCENC  =       124.49907330
  PAW double counting   =      2658.44016314    -2664.63383266
  entropy T*S    EENTRO =        -0.00000000
  eigenvalues    EBANDS =      -419.98387753
  atomic energy  EATOM  =      1080.01910064
  ---------------------------------------------------
  free energy    TOTEN  =       -98.38988546 eV

  energy without entropy =      -98.38988546  energy(sigma->0) =      -98.38988546


--------------------------------------------------------------------------------------------------------




--------------------------------------- Iteration      1(   8)  ---------------------------------------


    POTLOK:  cpu time      8.6375: real time      8.6464
    SETDIJ:  cpu time      0.0084: real time      0.0084
    TRIAL :  cpu time      0.5996: real time      0.6034
    CORREC:  cpu time      9.0167: real time      9.0259
    CHARGE:  cpu time      0.2423: real time      0.2424
    --------------------------------------------
      LOOP:  cpu time     18.5076: real time     18.5608

 eigenvalue-minimisations  :     0
 total energy-change (2. order) :-0.1223463E+01  (-0.6344419E+00)
 number of electron      38.0000011 magnetization 
 augmentation part        0.8893515 magnetization 

 Free energy of the ion-electron system (eV)
  ---------------------------------------------------
  alpha Z        PSCENC =         0.30179017
  Ewald energy   TEWEN  =      2783.31901849
  -Hartree energ DENC   =     -3651.16030390
  -exchange      EXHF   =         0.00000000
  -V(xc)+E(xc)   XCENC  =       124.38866502
  PAW double counting   =      2742.95331147    -2749.11456764
  entropy T*S    EENTRO =        -0.00000000
  eigenvalues    EBANDS =      -430.32036252
  atomic energy  EATOM  =      1080.01910064
  ---------------------------------------------------
  free energy    TOTEN  =       -99.61334826 eV

  energy without entropy =      -99.61334826  energy(sigma->0) =      -99.61334826


--------------------------------------------------------------------------------------------------------




--------------------------------------- Iteration      1(   9)  ---------------------------------------


    POTLOK:  cpu time      8.6068: real time      8.6165
    SETDIJ:  cpu time      0.0083: real time      0.0083
    TRIAL :  cpu time      0.5621: real time      0.5700
    CORREC:  cpu time      9.0505: real time      9.0618
    CHARGE:  cpu time      0.2410: real time      0.2411
    --------------------------------------------
      LOOP:  cpu time     18.4711: real time     18.5267

 eigenvalue-minimisations  :     0
 total energy-change (2. order) :-0.6131179E+00  (-0.1985579E+00)
 number of electron      38.0000011 magnetization 
 augmentation part        0.8926642 magnetization 

 Free energy of the ion-electron system (eV)
  ---------------------------------------------------
  alpha Z        PSCENC =         0.30179017
  Ewald energy   TEWEN  =      2783.31901849
  -Hartree energ DENC   =     -3632.88806424
  -exchange      EXHF   =         0.00000000
  -V(xc)+E(xc)   XCENC  =       123.71257591
  PAW double counting   =      2775.58275631    -2781.72220306
  entropy T*S    EENTRO =        -0.00000000
  eigenvalues    EBANDS =      -448.55144036
  atomic energy  EATOM  =      1080.01910064
  ---------------------------------------------------
  free energy    TOTEN  =      -100.22646612 eV

  energy without entropy =     -100.22646612  energy(sigma->0) =     -100.22646612


--------------------------------------------------------------------------------------------------------




--------------------------------------- Iteration      1(  10)  ---------------------------------------


    POTLOK:  cpu time      8.6383: real time      8.6484
    SETDIJ:  cpu time      0.0085: real time      0.0085
    TRIAL :  cpu time      0.5642: real time      0.5710
    CORREC:  cpu time      9.1976: real time      9.2072
    CHARGE:  cpu time      0.2408: real time      0.2416
    --------------------------------------------
      LOOP:  cpu time     18.6808: real time     18.7084

 eigenvalue-minimisations  :     0
 total energy-change (2. order) :-0.1966699E+00  (-0.5582982E-01)
 number of electron      38.0000011 magnetization 
 augmentation part        0.8951002 magnetization 

 Free energy of the ion-electron system (eV)
  ---------------------------------------------------
  alpha Z        PSCENC =         0.30179017
  Ewald energy   TEWEN  =      2783.31901849
  -Hartree energ DENC   =     -3631.98692215
  -exchange      EXHF   =         0.00000000
  -V(xc)+E(xc)   XCENC  =       123.65408482
  PAW double counting   =      2764.09505336    -2770.23343551
  entropy T*S    EENTRO =        -0.00000000
  eigenvalues    EBANDS =      -449.59182585
  atomic energy  EATOM  =      1080.01910064
  ---------------------------------------------------
  free energy    TOTEN  =      -100.42313603 eV

  energy without entropy =     -100.42313603  energy(sigma->0) =     -100.42313603


--------------------------------------------------------------------------------------------------------




--------------------------------------- Iteration      1(  11)  ---------------------------------------


    POTLOK:  cpu time      8.6948: real time      8.7039
    SETDIJ:  cpu time      0.0083: real time      0.0083
    TRIAL :  cpu time      0.5667: real time      0.5685
    CORREC:  cpu time      9.0182: real time      9.0272
    CHARGE:  cpu time      0.2375: real time      0.2375
    --------------------------------------------
      LOOP:  cpu time     18.5288: real time     18.5786

 eigenvalue-minimisations  :     0
 total energy-change (2. order) :-0.5572442E-01  (-0.1578760E-01)
 number of electron      38.0000011 magnetization 
 augmentation part        0.8959281 magnetization 

 Free energy of the ion-electron system (eV)
  ---------------------------------------------------
  alpha Z        PSCENC =         0.30179017
  Ewald energy   TEWEN  =      2783.31901849
  -Hartree energ DENC   =     -3632.18156279
  -exchange      EXHF   =         0.00000000
  -V(xc)+E(xc)   XCENC  =       123.61515885
  PAW double counting   =      2734.62680890    -2740.77015759
  entropy T*S    EENTRO =        -0.00000000
  eigenvalues    EBANDS =      -449.40901713
  atomic energy  EATOM  =      1080.01910064
  ---------------------------------------------------
  free energy    TOTEN  =      -100.47886045 eV

  energy without entropy =     -100.47886045  energy(sigma->0) =     -100.47886045


--------------------------------------------------------------------------------------------------------




--------------------------------------- Iteration      1(  12)  ---------------------------------------


    POTLOK:  cpu time      8.5642: real time      8.5755
    SETDIJ:  cpu time      0.0119: real time      0.0119
    TRIAL :  cpu time      0.5714: real time      0.5747
    CORREC:  cpu time      8.8645: real time      8.8745
    CHARGE:  cpu time      0.2499: real time      0.2510
    --------------------------------------------
      LOOP:  cpu time     18.2656: real time     18.3210

 eigenvalue-minimisations  :     0
 total energy-change (2. order) :-0.1582152E-01  (-0.4755391E-02)
 number of electron      38.0000011 magnetization 
 augmentation part        0.8972188 magnetization 

 Free energy of the ion-electron system (eV)
  ---------------------------------------------------
  alpha Z        PSCENC =         0.30179017
  Ewald energy   TEWEN  =      2783.31901849
  -Hartree energ DENC   =     -3631.03404575
  -exchange      EXHF   =         0.00000000
  -V(xc)+E(xc)   XCENC  =       123.53200435
  PAW double counting   =      2712.05340996    -2718.20119095
  entropy T*S    EENTRO =        -0.00000000
  eigenvalues    EBANDS =      -450.48476889
  atomic energy  EATOM  =      1080.01910064
  ---------------------------------------------------
  free energy    TOTEN  =      -100.49468197 eV

  energy without entropy =     -100.49468197  energy(sigma->0) =     -100.49468197


--------------------------------------------------------------------------------------------------------




--------------------------------------- Iteration      1(  13)  ---------------------------------------


    POTLOK:  cpu time      8.5028: real time      8.5112
    SETDIJ:  cpu time      0.0086: real time      0.0086
    TRIAL :  cpu time      0.5758: real time      0.5766
    CORREC:  cpu time      8.7097: real time      8.7201
    CHARGE:  cpu time      0.2376: real time      0.2385
    --------------------------------------------
      LOOP:  cpu time     18.0660: real time     18.0869

 eigenvalue-minimisations  :     0
 total energy-change (2. order) :-0.4764649E-02  (-0.1698133E-02)
 number of electron      38.0000011 magnetization 
 augmentation part        0.8975766 magnetization 

 Free energy of the ion-electron system (eV)
  ---------------------------------------------------
  alpha Z        PSCENC =         0.30179017
  Ewald energy   TEWEN  =      2783.31901849
  -Hartree energ DENC   =     -3632.14107117
  -exchange      EXHF   =         0.00000000
  -V(xc)+E(xc)   XCENC  =       123.57322335
  PAW double counting   =      2704.16910668    -2710.32044415
  entropy T*S    EENTRO =        -0.00000000
  eigenvalues    EBANDS =      -449.42017063
  atomic energy  EATOM  =      1080.01910064
  ---------------------------------------------------
  free energy    TOTEN  =      -100.49944662 eV

  energy without entropy =     -100.49944662  energy(sigma->0) =     -100.49944662


--------------------------------------------------------------------------------------------------------




--------------------------------------- Iteration      1(  14)  ---------------------------------------


    POTLOK:  cpu time      8.4507: real time      8.4603
    SETDIJ:  cpu time      0.0083: real time      0.0083
    TRIAL :  cpu time      0.5669: real time      0.5703
    CORREC:  cpu time      8.6264: real time      8.6349
    CHARGE:  cpu time      0.2384: real time      0.2394
    --------------------------------------------
      LOOP:  cpu time     17.8938: real time     17.9471

 eigenvalue-minimisations  :     0
 total energy-change (2. order) :-0.1700874E-02  (-0.6294958E-03)
 number of electron      38.0000011 magnetization 
 augmentation part        0.8977813 magnetization 

 Free energy of the ion-electron system (eV)
  ---------------------------------------------------
  alpha Z        PSCENC =         0.30179017
  Ewald energy   TEWEN  =      2783.31901849
  -Hartree energ DENC   =     -3632.27418196
  -exchange      EXHF   =         0.00000000
  -V(xc)+E(xc)   XCENC  =       123.58243955
  PAW double counting   =      2702.15440681    -2708.30753931
  entropy T*S    EENTRO =        -0.00000000
  eigenvalues    EBANDS =      -449.29618189
  atomic energy  EATOM  =      1080.01910064
  ---------------------------------------------------
  free energy    TOTEN  =      -100.50114749 eV

  energy without entropy =     -100.50114749  energy(sigma->0) =     -100.50114749


--------------------------------------------------------------------------------------------------------




--------------------------------------- Iteration      1(  15)  ---------------------------------------


    POTLOK:  cpu time      8.2398: real time      8.2487
    SETDIJ:  cpu time      0.0104: real time      0.0104
    TRIAL :  cpu time      0.5640: real time      0.5711
    CORREC:  cpu time      8.5823: real time      8.5918
    CHARGE:  cpu time      0.2386: real time      0.2386
    --------------------------------------------
      LOOP:  cpu time     17.6392: real time     17.6925

 eigenvalue-minimisations  :     0
 total energy-change (2. order) :-0.6291955E-03  (-0.1965908E-03)
 number of electron      38.0000011 magnetization 
 augmentation part        0.8979192 magnetization 

 Free energy of the ion-electron system (eV)
  ---------------------------------------------------
  alpha Z        PSCENC =         0.30179017
  Ewald energy   TEWEN  =      2783.31901849
  -Hartree energ DENC   =     -3632.45347041
  -exchange      EXHF   =         0.00000000
  -V(xc)+E(xc)   XCENC  =       123.59229440
  PAW double counting   =      2703.92296058    -2710.07653428
  entropy T*S    EENTRO =        -0.00000000
  eigenvalues    EBANDS =      -449.12693628
  atomic energy  EATOM  =      1080.01910064
  ---------------------------------------------------
  free energy    TOTEN  =      -100.50177669 eV

  energy without entropy =     -100.50177669  energy(sigma->0) =     -100.50177669


--------------------------------------------------------------------------------------------------------




--------------------------------------- Iteration      1(  16)  ---------------------------------------


    POTLOK:  cpu time      8.2052: real time      8.2140
    SETDIJ:  cpu time      0.0083: real time      0.0083
    TRIAL :  cpu time      0.5678: real time      0.5721
    CORREC:  cpu time      8.5703: real time      8.5809
    CHARGE:  cpu time      0.2396: real time      0.2406
    --------------------------------------------
      LOOP:  cpu time     17.5940: real time     17.6484

 eigenvalue-minimisations  :     0
 total energy-change (2. order) :-0.1954992E-03  (-0.5227164E-04)
 number of electron      38.0000011 magnetization 
 augmentation part        0.8977971 magnetization 

 Free energy of the ion-electron system (eV)
  ---------------------------------------------------
  alpha Z        PSCENC =         0.30179017
  Ewald energy   TEWEN  =      2783.31901849
  -Hartree energ DENC   =     -3632.69380327
  -exchange      EXHF   =         0.00000000
  -V(xc)+E(xc)   XCENC  =       123.60406262
  PAW double counting   =      2706.49747763    -2712.65078445
  entropy T*S    EENTRO =        -0.00000000
  eigenvalues    EBANDS =      -448.89883402
  atomic energy  EATOM  =      1080.01910064
  ---------------------------------------------------
  free energy    TOTEN  =      -100.50197219 eV

  energy without entropy =     -100.50197219  energy(sigma->0) =     -100.50197219


--------------------------------------------------------------------------------------------------------




--------------------------------------- Iteration      1(  17)  ---------------------------------------


    POTLOK:  cpu time      8.1798: real time      8.1884
    SETDIJ:  cpu time      0.0088: real time      0.0088
    TRIAL :  cpu time      0.5664: real time      0.5716
    CORREC:  cpu time      8.8069: real time      8.8205
    CHARGE:  cpu time      0.2421: real time      0.2437
    --------------------------------------------
      LOOP:  cpu time     17.8075: real time     17.8647

 eigenvalue-minimisations  :     0
 total energy-change (2. order) :-0.5170902E-04  (-0.1717656E-04)
 number of electron      38.0000011 magnetization 
 augmentation part        0.8977385 magnetization 

 Free energy of the ion-electron system (eV)
  ---------------------------------------------------
  alpha Z        PSCENC =         0.30179017
  Ewald energy   TEWEN  =      2783.31901849
  -Hartree energ DENC   =     -3632.62297474
  -exchange      EXHF   =         0.00000000
  -V(xc)+E(xc)   XCENC  =       123.60135538
  PAW double counting   =      2707.82045196    -2713.97332308
  entropy T*S    EENTRO =        -0.00000000
  eigenvalues    EBANDS =      -448.96744273
  atomic energy  EATOM  =      1080.01910064
  ---------------------------------------------------
  free energy    TOTEN  =      -100.50202390 eV

  energy without entropy =     -100.50202390  energy(sigma->0) =     -100.50202390


--------------------------------------------------------------------------------------------------------




--------------------------------------- Iteration      1(  18)  ---------------------------------------


    POTLOK:  cpu time      8.1916: real time      8.2016
    SETDIJ:  cpu time      0.0119: real time      0.0119
    TRIAL :  cpu time      0.5669: real time      0.5714
    CORREC:  cpu time      8.5944: real time      8.6085
    CHARGE:  cpu time      0.2409: real time      0.2410
    --------------------------------------------
      LOOP:  cpu time     17.6088: real time     17.6659

 eigenvalue-minimisations  :     0
 total energy-change (2. order) :-0.1635330E-04  (-0.6527109E-05)
 number of electron      38.0000011 magnetization 
 augmentation part        0.8976603 magnetization 

 Free energy of the ion-electron system (eV)
  ---------------------------------------------------
  alpha Z        PSCENC =         0.30179017
  Ewald energy   TEWEN  =      2783.31901849
  -Hartree energ DENC   =     -3632.66478087
  -exchange      EXHF   =         0.00000000
  -V(xc)+E(xc)   XCENC  =       123.60313257
  PAW double counting   =      2708.67874053    -2714.83132518
  entropy T*S    EENTRO =        -0.00000000
  eigenvalues    EBANDS =      -448.92771661
  atomic energy  EATOM  =      1080.01910064
  ---------------------------------------------------
  free energy    TOTEN  =      -100.50204025 eV

  energy without entropy =     -100.50204025  energy(sigma->0) =     -100.50204025


--------------------------------------------------------------------------------------------------------




--------------------------------------- Iteration      1(  19)  ---------------------------------------


    POTLOK:  cpu time      8.2033: real time      8.2144
    SETDIJ:  cpu time      0.0083: real time      0.0083
    TRIAL :  cpu time      0.5651: real time      0.5713
    CORREC:  cpu time      8.6175: real time      8.6288
    EDDIAG:  cpu time      0.2333: real time      0.2474
    CHARGE:  cpu time      0.2428: real time      0.2428
    --------------------------------------------
      LOOP:  cpu time     17.8723: real time     17.9435

 eigenvalue-minimisations  :     0
 total energy-change (2. order) :-0.6231385E-05  (-0.2274073E-05)
 number of electron      38.0000011 magnetization 
 augmentation part        0.8976535 magnetization 

 Free energy of the ion-electron system (eV)
  ---------------------------------------------------
  alpha Z        PSCENC =         0.30179017
  Ewald energy   TEWEN  =      2783.31901849
  -Hartree energ DENC   =     -3632.62332377
  -exchange      EXHF   =         0.00000000
  -V(xc)+E(xc)   XCENC  =       123.60155072
  PAW double counting   =      2708.89376836    -2715.04622954
  entropy T*S    EENTRO =        -0.00000000
  eigenvalues    EBANDS =      -448.96772157
  atomic energy  EATOM  =      1080.01910064
  ---------------------------------------------------
  free energy    TOTEN  =      -100.50204648 eV

  energy without entropy =     -100.50204648  energy(sigma->0) =     -100.50204648


--------------------------------------------------------------------------------------------------------


  average scaling for gradient   1.3592


 average (electrostatic) potential at core
  the test charge radii are     0.6991  0.5201
  (the norm of the test charge is              1.0000)
       1 -58.8390       2 -58.7067       3 -58.7973       4 -58.8392       5 -58.8002
       6 -58.7055       7 -42.7641       8 -42.7728       9 -42.7496      10 -42.7500
      11 -42.6903      12 -42.6914      13 -42.6828      14 -42.6806      15 -42.6887
      16 -42.7503      17 -42.7514      18 -42.6914      19 -42.6903      20 -42.6906
 
 
 
 E-fermi :  -7.5702     XC(G=0):  -0.1458     alpha+bet : -0.0499

 Fermi energy:        -7.5701667247

 k-point     1 :       0.0000    0.0000    0.0000
  band No.  band energies     occupation 
      1     -20.2519      2.00000
      2     -19.2771      2.00000
      3     -17.7737      2.00000
      4     -15.9996      2.00000
      5     -14.5757      2.00000
      6     -14.3705      2.00000
      7     -11.9343      2.00000
      8     -11.0911      2.00000
      9     -10.8327      2.00000
     10     -10.4646      2.00000
     11      -9.9265      2.00000
     12      -9.4770      2.00000
     13      -9.3917      2.00000
     14      -8.8078      2.00000
     15      -8.4801      2.00000
     16      -8.1246      2.00000
     17      -8.0815      2.00000
     18      -7.9469      2.00000
     19      -7.6759      2.00000
     20      -0.9714      0.00000
     21      -0.6717      0.00000
     22      -0.5416      0.00000
     23      -0.4807      0.00000
     24      -0.1651      0.00000
     25       0.0464      0.00000
     26       0.1065      0.00000
     27       0.1798      0.00000
     28       0.1873      0.00000
     29       0.2068      0.00000
     30       0.2267      0.00000
     31       0.2290      0.00000
     32       0.3112      0.00000
     33       0.3199      0.00000
     34       0.3838      0.00000
     35       0.3871      0.00000
     36       0.4147      0.00000
     37       0.4316      0.00000
     38       0.4464      0.00000
     39       0.5185      0.00000
     40       0.5412      0.00000
     41       0.7444      0.00000
     42       0.8491      0.00000
     43       0.8544      0.00000
     44       0.9311      0.00000
     45       0.9963      0.00000
     46       1.0200      0.00000
     47       1.1292      0.00000
     48       1.3448      0.00000


--------------------------------------------------------------------------------------------------------


 soft charge-density along one line, spin component           1
         0         1         2         3         4         5         6         7         8         9
 total charge-density along one line
 
 pseudopotential strength for first ion, spin component:           1
 10.265  13.652  -0.000  -0.000   0.000   0.001   0.001  -0.000
 13.652  18.155  -0.000  -0.000   0.000   0.001   0.001  -0.000
 -0.000  -0.000  -4.257   0.000   0.000   8.328  -0.000  -0.000
 -0.000  -0.000   0.000  -4.256   0.000  -0.000   8.325  -0.000
  0.000   0.000   0.000   0.000  -4.258  -0.000  -0.000   8.329
  0.001   0.001   8.328  -0.000  -0.000 -18.432   0.000   0.000
  0.001   0.001  -0.000   8.325  -0.000   0.000 -18.428   0.000
 -0.000  -0.000  -0.000  -0.000   8.329   0.000   0.000 -18.432
 total augmentation occupancy for first ion, spin component:           1
  8.105  -3.581  -0.088   0.011   0.000  -0.004   0.001   0.000
 -3.581   1.614   0.048  -0.002  -0.000  -0.001  -0.001  -0.000
 -0.088   0.048   1.592   0.000  -0.000   0.136  -0.000  -0.000
  0.011  -0.002   0.000   1.578  -0.000  -0.000   0.137  -0.000
  0.000  -0.000  -0.000  -0.000   1.627  -0.000   0.000   0.135
 -0.004  -0.001   0.136  -0.000  -0.000   0.012  -0.000  -0.000
  0.001  -0.001  -0.000   0.137   0.000  -0.000   0.013   0.000
  0.000  -0.000  -0.000  -0.000   0.135  -0.000   0.000   0.012


------------------------ aborting loop because EDIFF is reached ----------------------------------------


    FORLOC:  cpu time      0.0666: real time      0.0666
    FORNL :  cpu time      0.3360: real time      0.3362
    STRESS:  cpu time      0.9416: real time      0.9428
    FORCOR:  cpu time      8.3833: real time      8.3946
    OFIELD:  cpu time      0.0016: real time      0.0016

  FORCE on cell =-STRESS in cart. coord.  units (eV):
  Direction    XX          YY          ZZ          XY          YZ          ZX
  --------------------------------------------------------------------------------------
  Alpha Z     0.30179     0.30179     0.30179
  Ewald     406.46504   498.57419  1878.27930    -0.03920  -112.19661     0.67085
  Hartree   792.56641   830.25677  2009.80213    -0.01434   -92.63247     0.55972
  E(xc)    -140.04660  -140.53211  -141.40015     0.00001     0.14341    -0.00023
  Local   -1505.30191 -1644.65455 -4216.32643     0.04670   207.65367    -1.23483
  n-local   -64.24103   -62.26290   -60.35141     0.00208    -0.61520     0.00151
  augment    -0.38378    -0.29091    -0.15994     0.00006    -0.02914     0.00008
  Kinetic   510.34359   518.31127   529.72953    -0.00237    -2.30545     0.00114
  Fock        0.00000     0.00000     0.00000     0.00000     0.00000     0.00000
  -------------------------------------------------------------------------------------
  Total      -0.29650    -0.29645    -0.12518    -0.00705     0.01821    -0.00176
  in kB      -0.02398    -0.02398    -0.01012    -0.00057     0.00147    -0.00014
  external pressure =       -0.02 kB  Pullay stress =        0.00 kB


 VOLUME and BASIS-vectors are now :
 -----------------------------------------------------------------------------
  energy-cutoff  :      500.00
  volume of cell :    19809.80
      direct lattice vectors                 reciprocal lattice vectors
    23.670780182  0.000000000  0.000000000     0.042246178  0.000000000  0.000000000
     0.000000000 27.896282673  0.000000000     0.000000000  0.035847070  0.000000000
     0.000000000  0.000000000 30.000000000     0.000000000  0.000000000  0.033333333

  length of vectors
    23.670780182 27.896282673 30.000000000     0.042246178  0.035847070  0.033333333


 FORCES acting on ions:
    Electron-Ion                     Ewald-Force                    Non-Local-Force
 -----------------------------------------------------------------------------------------------
   0.248E-01 0.882E+02 0.711E+02   -.272E-01 -.879E+02 -.708E+02   -.753E-02 -.279E+00 -.342E+00
   0.884E-03 0.462E+02 -.144E+03   -.736E-03 -.459E+02 0.144E+03   0.268E-02 -.328E+00 0.442E+00
   -.596E-01 0.827E+02 -.182E+02   0.558E-01 -.821E+02 0.183E+02   -.246E-03 -.583E+00 -.509E-01
   -.108E+00 -.892E+02 -.722E+02   0.107E+00 0.889E+02 0.719E+02   0.158E-02 0.251E+00 0.320E+00
   0.602E-01 -.850E+02 0.187E+02   -.584E-01 0.845E+02 -.187E+02   0.786E-03 0.501E+00 0.985E-01
   0.633E-01 -.446E+02 0.145E+03   -.617E-01 0.443E+02 -.144E+03   0.122E-02 0.301E+00 -.481E+00
   0.132E-01 0.300E+02 0.691E+02   -.139E-01 -.332E+02 -.738E+02   0.425E-03 0.326E+01 0.468E+01
   0.271E-01 -.284E+02 -.698E+02   -.308E-01 0.316E+02 0.746E+02   0.216E-02 -.314E+01 -.479E+01
   -.517E+02 0.439E+02 -.271E+02   0.563E+02 -.472E+02 0.273E+02   -.458E+01 0.336E+01 -.216E+00
   0.517E+02 0.439E+02 -.270E+02   -.563E+02 -.473E+02 0.272E+02   0.458E+01 0.336E+01 -.208E+00
   0.554E+02 -.534E+02 -.157E+02   -.599E+02 0.568E+02 0.158E+02   0.449E+01 -.344E+01 -.778E-02
   -.554E+02 -.534E+02 -.157E+02   0.599E+02 0.568E+02 0.157E+02   -.449E+01 -.344E+01 -.657E-02
   -.577E+02 0.541E+02 -.400E+01   0.622E+02 -.575E+02 0.402E+01   -.446E+01 0.341E+01 -.335E-01
   0.576E+02 0.541E+02 -.406E+01   -.621E+02 -.575E+02 0.409E+01   0.446E+01 0.341E+01 -.397E-01
   0.556E+02 0.533E+02 0.152E+02   -.601E+02 -.567E+02 -.152E+02   0.449E+01 0.343E+01 -.260E-01
   -.516E+02 -.435E+02 0.279E+02   0.562E+02 0.469E+02 -.282E+02   -.457E+01 -.336E+01 0.293E+00
   0.516E+02 -.435E+02 0.279E+02   -.562E+02 0.469E+02 -.281E+02   0.458E+01 -.337E+01 0.292E+00
   0.577E+02 -.542E+02 0.407E+01   -.622E+02 0.577E+02 -.410E+01   0.448E+01 -.341E+01 0.215E-01
   -.576E+02 -.543E+02 0.414E+01   0.621E+02 0.577E+02 -.418E+01   -.447E+01 -.341E+01 0.276E-01
   -.555E+02 0.533E+02 0.153E+02   0.600E+02 -.568E+02 -.153E+02   -.449E+01 0.343E+01 -.226E-01
 -----------------------------------------------------------------------------------------------
   0.530E-02 0.519E-02 0.182E-01   0.568E-13 0.355E-13 0.160E-13   -.415E-02 -.375E-01 -.437E-01
 
 
 POSITION                                       TOTAL-FORCE (eV/Angst)
 -----------------------------------------------------------------------------------
     11.83457     13.52041     13.08376        -0.009912      0.001112     -0.034098
     11.83623     13.51915     18.18957         0.002752      0.004645      0.014155
     11.83610     13.54242     15.64293        -0.004032     -0.026285      0.007800
     11.83665     14.38172     16.92461         0.000488     -0.018723     -0.000817
     11.83487     14.37063     14.35645         0.002440     -0.023222      0.043811
     11.83401     14.35785     11.80315         0.002651     -0.008882     -0.052558
     11.83393     13.72656     10.91059        -0.000335      0.006013      0.014839
     11.83575     14.12534     19.09780        -0.001569      0.044658      0.007054
     12.71997     12.87469     18.22262        -0.014901     -0.005332      0.001102
     10.95277     12.87428     18.22117         0.014406     -0.004839      0.004184
     10.96099     15.04202     16.92505        -0.020767     -0.010116      0.014884
     12.71254     15.04152     16.92483         0.023457     -0.008669      0.015185
     12.71326     12.88174     15.64910         0.007725      0.003154     -0.010687
     10.95913     12.88100     15.65035        -0.001064      0.008517     -0.010955
     10.95755     12.86151     13.09039        -0.002826      0.002994      0.001496
     12.71675     15.00232     11.75507        -0.001072      0.003307     -0.001201
     10.95130     15.00220     11.75545        -0.001984      0.004682     -0.000784
     10.95684     15.02941     14.35171        -0.011912      0.013892     -0.007953
     12.71241     15.03024     14.35055         0.009109      0.012141     -0.007225
     12.71128     12.86141     13.08973         0.007347      0.000952      0.001767
 -----------------------------------------------------------------------------------
    total drift:                                0.001150     -0.032345     -0.025564


--------------------------------------------------------------------------------------------------------



  FREE ENERGIE OF THE ION-ELECTRON SYSTEM (eV)
  ---------------------------------------------------
  free  energy   TOTEN  =      -100.50204648 eV

  energy  without entropy=     -100.50204648  energy(sigma->0) =     -100.50204648
 


--------------------------------------------------------------------------------------------------------


 BEEFens 2000 ensemble energies
             -0.314955197668643E+02
             -0.160119681169505E+00
             -0.657932811561824E+01
              0.213514029928526E+02
             -0.109473976680365E+02
             -0.860416866558120E+01
             -0.222899983512818E+02
             -0.464624013733657E+02
             -0.191719961981097E+02
             -0.206955377332049E+02
             -0.163351070381078E+02
              0.132612593578317E+01
              0.958755688117826E+00
              0.570594306335281E+00
              0.171826552435208E+01
              0.233218208873510E+02
             -0.111128517274049E+02
             -0.734114959419706E+01
              0.107697048138011E+02
             -0.555731494130975E+02
              0.263999119754775E+02
             -0.110718762325387E+02
             -0.306975261890418E+01
             -0.516541624764156E+01
             -0.152224912982518E+00
             -0.280081254115211E+01
              0.450420972745692E+02
             -0.954807201646703E+01
             -0.440631184926099E+01
             -0.266520768638792E+02
              0.370692450642051E+02
             -0.466407780293504E+01
             -0.202885074187026E+02
              0.945972811509264E+01
             -0.139468661502170E+01
              0.114317457818191E+02
             -0.103283597604775E+01
              0.190245510806106E+01
              0.168691758848963E+02
             -0.510302159546247E+02
              0.287009476662481E+02
              0.594246551045293E+01
             -0.406186512092140E+01
             -0.150715628360180E+02
              0.639799905796227E+01
             -0.755542983300862E+01
              0.234234688259846E+02
              0.175309739051215E+02
             -0.121330496042259E+02
             -0.141336197776712E+02
             -0.151489213570208E+02
             -0.187422791560306E+02
              0.104443827074094E+02
             -0.256138824216287E+02
              0.721509548321717E+01
              0.299768845088590E+02
              0.344167846703667E+02
              0.167809158171126E+02
              0.909438489416277E+01
              0.153926717958339E+02
              0.462257600789985E+02
              0.975600823284179E+01
             -0.277917666929751E+02
             -0.647565548506918E+01
             -0.143491461855305E+02
              0.310828283724838E+02
             -0.380762742226393E+02
             -0.309548206801535E+02
             -0.157944078823402E+02
             -0.687883349993058E+01
             -0.205608746758795E+02
              0.142023942065546E+02
              0.658902498230458E+01
              0.598682712215285E+01
             -0.199611608124278E+02
             -0.172768163817356E+02
             -0.280658632015625E+02
              0.176032328435448E+02
             -0.157866459978076E+02
              0.157036965560456E+02
             -0.400598882225531E+01
             -0.155192336155955E+02
             -0.261802108539961E+02
             -0.718512664643507E+01
             -0.665673615425220E+01
             -0.683005650187046E+01
              0.209296346090305E+02
              0.364063848369002E+02
             -0.203605282606521E+02
             -0.392948648442983E+02
             -0.984195600801495E+01
              0.550558987559460E+02
             -0.289998366814627E+02
              0.162207306278972E+02
             -0.428182303510567E+01
             -0.313699674502922E+02
              0.137659855534251E+02
              0.168390518246927E+02
             -0.746519521720276E+01
              0.158238473137253E+02
             -0.135328261655546E+02
             -0.271935150137483E+02
              0.473341782850463E+02
              0.219920925320690E+02
              0.131939869691386E+02
              0.510476748294667E+01
              0.910015614400427E+01
              0.410959959576161E+02
             -0.140475182834885E+02
              0.212257282171002E+01
             -0.701793906890736E+02
              0.103780036440088E+02
             -0.340622319092147E+02
              0.658795050166160E+01
              0.104739735637153E+02
             -0.169973566156140E+02
             -0.263521378251914E+02
              0.148325223727068E+01
             -0.151799293114752E+02
              0.196511450365063E+02
             -0.230678076900891E+02
             -0.264837430565149E+01
             -0.185859490269633E+02
             -0.822877346733520E+00
              0.883020469499087E+00
              0.983257326861769E+01
              0.123085880632573E+00
             -0.333474136331566E+01
              0.317661543385106E+02
              0.454540576369817E+02
              0.244445016896759E+02
              0.361020544100426E+02
             -0.709236158070011E+01
              0.357994980067693E+01
              0.262715610882782E+02
             -0.470249529527877E+00
             -0.378359402223728E+02
             -0.212379765669386E+02
             -0.247519402169777E+02
             -0.146219314905488E+02
              0.137185193600428E+02
             -0.589724482800125E+02
             -0.681036935702093E+01
              0.211130820104054E+02
             -0.203082427548834E+02
             -0.160639855009711E+02
              0.271935622500718E+02
              0.232393425281803E+02
             -0.155423611486278E+02
              0.129674660801116E+02
             -0.136972051970552E+02
              0.188398940192491E+02
              0.372192821259821E+01
              0.728832029397692E+01
             -0.421926253569466E+02
             -0.237878499254519E+02
             -0.576143508293336E+01
             -0.209813007550746E+01
             -0.201663158594536E+02
              0.542092008567357E+02
             -0.778203799786417E+01
             -0.159670074961632E+02
              0.205784956960731E+02
             -0.231498511838362E+02
             -0.183890907668802E+02
              0.146617402287087E+02
              0.546490262007499E+01
              0.559349801746094E+01
              0.655976752350453E+01
             -0.602457211734912E+01
              0.690260275224469E+01
              0.295769554751688E+02
             -0.148504419912781E+02
              0.921111457840732E+01
              0.454198970719327E+02
              0.159298418022480E+02
             -0.241579540807248E+01
             -0.889437069946642E+01
              0.759575075151510E+02
             -0.112833769400632E+02
              0.191685243264955E+02
              0.135410205350601E+02
              0.156107721212538E+02
              0.463996893520025E+02
              0.238120395549567E+02
             -0.174519952081616E+01
              0.113779861052456E+02
              0.252783023472339E+02
              0.183312407738322E+02
             -0.299349975387221E+02
              0.469101907224588E+02
             -0.440374047285518E+02
             -0.715774101117679E+01
              0.280787511108915E+02
              0.530953605234352E+01
              0.160068256170342E+01
              0.155208831769858E+02
              0.982935033967860E+01
              0.166933994997237E+02
             -0.306974597236804E+02
              0.132046311773757E+01
             -0.124904792741728E+02
             -0.231427945727208E+01
              0.259414346468645E+00
             -0.578739771983036E+01
             -0.285108886055748E+01
              0.430469820599777E+02
             -0.265036916443529E+01
             -0.146446028426197E+02
             -0.126378935925414E+01
              0.694676486378283E+01
             -0.300034277636772E+02
             -0.238295278073584E+02
             -0.168605640001493E+02
             -0.309805683615261E+02
             -0.843323380182702E+01
             -0.212782434808817E+02
              0.864949783757407E+01
             -0.414896992110179E+00
             -0.663880880417602E+01
             -0.459863353224434E+01
              0.352491977083662E+01
             -0.104537224513490E+02
              0.323383533169839E+02
             -0.429810085797278E+02
             -0.584292629548193E+01
             -0.786871367499646E+01
              0.856122921854765E+01
              0.951200456247170E+01
             -0.236515876543464E+02
             -0.744039634433904E+01
              0.227922535035558E+02
             -0.122751779410809E+02
              0.716010595038222E+01
              0.182084684939210E+02
             -0.135644115535172E-01
[...]
  343        fft3d_mpi                            27.380410                         1133   3
  344          fftbrc_mpi                           25.325542                       1133   4
  345            fftbas_plan_mpi                      25.321893                     1133   5
  346              dfftw_execute                         7.069166                   3399   6
  347              map_forward                           9.743449                   1138   6
  348                map_gather                            1.010508                  574   7
  349                m_alltoallv_z                         4.962899                  574   7
  350                map_scatter                           3.750468                  574   7
  351              map_backward                          7.582293                   1128   6
  352                map_gather                            2.106035                  564   7
  353                m_alltoallv_z                         4.232804                  564   7
  354                map_scatter                           1.225412                  564   7
  355        ggaall_grid                           6.334804                          101   3
  356        m_sumb_d                              0.286847                          510   3
  357        pothar                                0.024548                            5   3
  358          m_sumb_d                              0.007425                          5   4
  359        m_bcast_d                             0.074499                            5   3
  360      potlok_metagga                        0.000024                              5   2
  361      set_dd_magatom                        0.000003                              3   2
  362      set_dd_paw                            0.037225                              5   2
  363        set_rsgf_all                          0.000007                            5   3
  364        m_sumb_d                              0.036179                           35   3
  365      wavpre_noio                           0.120839                              2   2
  366        stufak                                0.077803                            2   3
  367      eddiag                                0.464184                              2   2
  368        overl                                 0.000040                            2   3
  369        redis_proj                            0.002094                            6   3
  370          m_alltoall_d                          0.002007                          6   4
  371        fftwav_mpi                            0.209915                            2   3
  372          fft3d_mpi                             0.171232                          2   4
  373            fftbrc_mpi                            0.127301                        2   5
  374              fftbas_plan_mpi                       0.127293                      2   6
  375                dfftw_execute                         0.052280                    6   7
  376                map_forward                           0.072554                    4   7
  377                  map_gather                            0.017000                  2   8
  378                  m_alltoallv_z                         0.008186                  2   8
  379                  map_scatter                           0.018532                  2   8
  380        hamilt_local                          0.188515                            2   3
  381          vhamil                                0.056327                          2   4
  382          kinhamil                              0.132149                          2   4
  383            fftext_mpi                            0.130466                        2   5
  384              fft3d_mpi                             0.128369                      2   6
  385                fftbrc_mpi                            0.098327                    2   7
  386                  fftbas_plan_mpi                       0.098322                  2   8
  387                    dfftw_execute                         0.065970                6   9
  388                    map_backward                          0.030952                4   9
  389                      map_gather                            0.016837              2  10
  390                      m_alltoallv_z                         0.003840              2  10
  391                      map_scatter                           0.010205              2  10
  392        redis_pw                              0.044623                            6   3
  393          m_alltoall_d                          0.036190                          6   4
  394        orth1                                 0.002559                            2   3
  395        m_sumb_d                              0.000738                            2   3
  396        shift_bands_between_low_high          0.000002                            2   3
  397        lincom                                0.005167                            2   3
  398      set_charge                            0.500736                              2   2
  399        soft_charge                           0.435500                            2   3
  400          fftwav_mpi                            0.199112                          2   4
  401            fft3d_mpi                             0.161023                        2   5
  402              fftbrc_mpi                            0.127865                      2   6
  403                fftbas_plan_mpi                       0.127860                    2   7
  404                  dfftw_execute                         0.058590                  6   8
  405                  map_forward                           0.067132                  4   8
  406                    map_gather                            0.016505                2   9
  407                    m_alltoallv_z                         0.007349                2   9
  408                    map_scatter                           0.019326                2   9
  409          pw_charge                             0.025528                          2   4
  410          m_sumb_d                              0.115071                          2   4
  411          fft_gq                                0.037642                          2   4
  412            fft3d_mpi                             0.034899                        2   5
  413              fftbrc_mpi                            0.029529                      2   6
  414                fftbas_plan_mpi                       0.029523                    2   7
  415                  dfftw_execute                         0.012807                  6   8
  416                  map_backward                          0.015691                  4   8
  417                    map_gather                            0.006576                4   9
  418                    m_alltoallv_z                         0.008216                4   9
  419                    map_scatter                           0.000829                4   9
  420        depsum                                0.000703                            2   3
  421          m_sumb_d                              0.000653                          2   4
  422        augmentation_charge                   0.059897                            2   3
  423          m_sumb_d                              0.000225                          2   4
  424          fft3d_mpi                             0.044187                          2   4
  425            fftbrc_mpi                            0.041473                        2   5
  426              fftbas_plan_mpi                       0.041468                      2   6
  427                dfftw_execute                         0.012510                    6   7
  428                map_backward                          0.027367                    4   7
  429                  map_gather                            0.008447                  2   8
  430                  m_alltoallv_z                         0.014623                  2   8
  431                  map_scatter                           0.004210                  2   8
 
 Flat profile
 ============
 
             routine name                   CPU           calls
 ---------------------------------------------------------------
 potlok                                353.447962          56
 m_alltoallv_z                          48.329359        5575
 dfftw_execute                          41.420954       16398
 map_scatter                            24.975027        5575
 total_time                             21.266746           1
 ggaall_grid                            19.847692         155
 force_and_stress                       18.701355           3
 map_gather                             16.239290        5575
 fft3d_mpi                              14.962331        5466
 m_sumb_d                                5.160234        2899
 fftbas_plan_mpi                         4.602967        5466
 fftwav_mpi                              4.092802         211
 map_forward                             2.928803        5550
 m_alltoall_d                            2.080590        1054
 edwav                                   1.854423          50
 eccp                                    1.551798         105
 vhamil                                  1.460545          52
 soft_charge                             1.181096          53
 elmin_all                               1.049647           3
 m_bcast_d                               0.863167         135
 pw_charge                               0.571599          53
 m_bcast_z                               0.534657          49
 lapack                                  0.450255          22
 redis_pw                                0.423699         317
 augmentation_charge                     0.390221          53
 lincom                                  0.357038         158
 orth1                                   0.288742         144
 forloc                                  0.196944           3
 pothar                                  0.192782          56
 w1_dscal                                0.188759          25
 eddav                                   0.136905           5
 rspher_all                              0.135216          40
 fftext_mpi                              0.130426          77
 stufak                                  0.122295           3
 set_charge                              0.121952          53
 map_backward                            0.094425        5382
 w1_copy                                 0.084155          66
 fft_gq                                  0.073627          53
 setdij_                                 0.069772         135
 forhar                                  0.061550           3
 ggemm                                   0.058902          22
 inisym                                  0.043378           1
 wavpre_noio                             0.043036           2
 strelo                                  0.041638           3
 eddiag                                  0.035522          30
 racc0                                   0.028125          47
 strehar                                 0.027128           3
 rpro1                                   0.027011          42
 apply_precond                           0.024028          17
 kinhamil                                0.021446          52
 choleski                                0.019069          53
 fftbrc_mpi                              0.018953        5466
 rpromu                                  0.013096          39
 rpro_isp                                0.012947          39
 redis_proj                              0.012574         737
 rpromu_gemm                             0.010871         780
 set_dd_paw                              0.009895          59
 setup_precond                           0.005939           5
 fewald                                  0.005130           3
 overl                                   0.004688         172
 orthch                                  0.004414          53
 densta                                  0.004169          64
 strkin                                  0.003984           3
 rsp                                     0.003448           3
 newband                                 0.002028          27
 strnlr                                  0.001719           3
 depsum                                  0.001448          53
 brgrid                                  0.001420           1
 overl1                                  0.000934          22
 hamiltmu                                0.000695          22
 redis_pw_all                            0.000563          50
 fornlr                                  0.000534           3
 hamilt_local                            0.000520          30
 raccmu_                                 0.000454          22
 rcp                                     0.000285           3
 crpa_reader                             0.000254           1
 redis_pw_over_bands                     0.000212          55
 potlok_metagga                          0.000201          56
 fordep                                  0.000181           3
 w1_projall                              0.000115          17
 set_rsgf_all                            0.000111          59
 phaser                                  0.000055          69
 proall                                  0.000042           3
 rotate_active_occupied_orbital          0.000038           3
 truncate_high_frequency_w1              0.000029          27
 posmap                                  0.000023           2
 vectorpot                               0.000020           1
 set_dd_magatom                          0.000013           6
 shift_bands_between_low_high            0.000007           5
 ---------------------------------------------------------------
  summed up times    591.133097887039     
 
 Accumulative profile
 ====================
 
             routine name                   CPU           calls
 ---------------------------------------------------------------
 total_time                            591.133098           1
 potlok                                498.284963          56
 elmin_all                             468.403184           3
 fft3d_mpi                             153.572108        5466
 fftbrc_mpi                            138.609776        5466
 fftbas_plan_mpi                       138.590824        5466
 map_forward                            54.975260        5550
 m_alltoallv_z                          48.329359        5575
 dfftw_execute                          41.420954       16398
 map_backward                           37.591643        5382
 force_and_stress                       28.734330           3
 map_scatter                            24.975027        5575
 fftwav_mpi                             21.885509         211
 ggaall_grid                            19.847692         155
 map_gather                             16.239290        5575
 edwav                                  15.128198          50
 set_charge                             12.847731          53
 soft_charge                            11.066419          53
 eddav                                   7.768704           5
 m_sumb_d                                5.160234        2899
 fftext_mpi                              4.960863          77
 eddiag                                  4.024872          30
 rpro_isp                                3.861065          39
 kinhamil                                3.365820          52
 hamilt_local                            2.786648          30
 strnlr                                  2.738214           3
 redis_pw                                2.097014         317
 m_alltoall_d                            2.080590        1054
 hamiltmu                                2.069376          22
 augmentation_charge                     1.638634          53
 eccp                                    1.566643         105
 vhamil                                  1.460545          52
 fft_gq                                  1.050572          53
 fornlr                                  0.960333           3
 m_bcast_d                               0.863167         135
 newband                                 0.651073          27
 pw_charge                               0.571599          53
 m_bcast_z                               0.534657          49
 lapack                                  0.450255          22
 set_dd_paw                              0.443267          59
 redis_proj                              0.419848         737
 orthch                                  0.357646          53
 lincom                                  0.357038         158
 redis_pw_over_bands                     0.349738          55
 redis_pw_all                            0.349526          50
 proall                                  0.334113           3
 orth1                                   0.288742         144
 pothar                                  0.257110          56
 forloc                                  0.198134           3
 w1_dscal                                0.188759          25
 setdij_                                 0.156768         135
 rspher_all                              0.135216          40
 stufak                                  0.122295           3
 wavpre_noio                             0.120839           2
 w1_copy                                 0.084155          66
 racc0                                   0.066865          47
 forhar                                  0.065095           3
 ggemm                                   0.058902          22
 densta                                  0.051958          64
 strelo                                  0.045170           3
 inisym                                  0.043401           1
 rpro1                                   0.038039          42
 rpromu                                  0.034854          39
 strehar                                 0.029095           3
 raccmu_                                 0.028445          22
 apply_precond                           0.024028          17
 depsum                                  0.020725          53
 choleski                                0.019069          53
 fordep                                  0.014811           3
 w1_projall                              0.014230          17
 fewald                                  0.014104           3
 rpromu_gemm                             0.010871         780
 setup_precond                           0.006131           5
 overl                                   0.004688         172
 strkin                                  0.004591           3
 rsp                                     0.003448           3
 brgrid                                  0.001420           1
 overl1                                  0.000934          22
 rcp                                     0.000285           3
 crpa_reader                             0.000254           1
 potlok_metagga                          0.000201          56
 set_rsgf_all                            0.000111          59
 phaser                                  0.000055          69
 rotate_active_occupied_orbital          0.000038           3
 truncate_high_frequency_w1              0.000029          27
 posmap                                  0.000023           2
 vectorpot                               0.000020           1
 set_dd_magatom                          0.000013           6
 shift_bands_between_low_high            0.000007           5
 ---------------------------------------------------------------
 
Profiling took   0.135399  0.052831  0.015441  0.014245 seconds
Profiling took   0.228829 seconds
