 vasp.6.3.2 27Jun22 (build Jan 03 2024 23:25:20) gamma-only                     
  
 executed on           IFC15_impi date 2024.03.10  21:32:49
 running  512 mpi-ranks, with    1 threads/rank
 distrk:  each k-point on  512 cores,    1 groups
 distr:  one band on NCORE=  32 cores,   16 groups


--------------------------------------------------------------------------------------------------------


 INCAR:
   ENCUT = 500.000000
   SIGMA = 0.010000
   EDIFF = 1.00e-06
   ALGO = A
   ISMEAR = 0
   NELM = 2000
   NSW = 500
   NCORE = 32
   LCHARG = .FALSE.
   LWAVE = .FALSE.
   LREAL = Auto
   IBRION = 2
   EDIFFG = -0.05
   GGA = BF
   LUSE_VDW = .TRUE.
   ZAB_VDW = -1.8867
   LBEEFENS = .TRUE.
   DIPOL = 0.5 0.5 0.5
   IDIPOL = 3
   LDIPOL = .TRUE.

 POTCAR:    PAW_PBE Sr_sv 07Sep2000               
 POTCAR:    PAW_PBE Ti_sv 26Sep2005               
 POTCAR:    PAW_PBE O 08Apr2002                   
 -----------------------------------------------------------------------------
|                                                                             |
|               ----> ADVICE to this user running VASP <----                  |
|                                                                             |
|     You have switched on vdW-DFT.                                           |
|     This routine was written and supplied by Jiri Klimes. We recommend      |
|     that you carefully read and cite the following publications:            |
|       J. Klimes, D.R. Bowler, A. Michelides                                 |
|          J. Phys.: Cond Matt. 22 022201 (2010)                              |
|       J. Klimes, D.R. Bowler, A. Michelides                                 |
|          Phys. Rev. B. 83, 195131 (2011)                                    |
|     and references therein.                                                 |
|                                                                             |
 -----------------------------------------------------------------------------

 POTCAR:    PAW_PBE Sr_sv 07Sep2000               
   SHA256 =  a8389d3481648516ee67182ee030b298d280b37e29cbbf2d8595f040d757c710 Sr_sv/POTCAR          
   COPYR  = (c) Copyright 07Sep2000 Georg Kresse                                                    
   COPYR  = This file is part of the software VASP. Any use, copying, and all other rights are regul
   COPYR  = If you do not have a valid VASP license, you may not use, copy or distribute this file. 
   VRHFIN =Sr: 4s4p5s                                                                               
   LEXCH  = PE                                                                                      
   EATOM  =   843.0319 eV,   61.9611 Ry                                                             
                                                                                                    
   TITEL  = PAW_PBE Sr_sv 07Sep2000                                                                 
   LULTRA =        F    use ultrasoft PP ?                                                          
   IUNSCR =        1    unscreen: 0-lin 1-nonlin 2-no                                               
   RPACOR =    2.200    partial core radius                                                         
   POMASS =   87.620; ZVAL   =   10.000    mass and valenz                                          
   RCORE  =    2.500    outmost cutoff radius                                                       
   RWIGS  =    4.040; RWIGS  =    2.138    wigner-seitz radius (au A)                               
   ENMAX  =  229.353; ENMIN  =  172.014 eV                                                          
   RCLOC  =    2.201    cutoff for local pot                                                        
   LCOR   =        T    correct aug charges                                                         
   LPAW   =        T    paw PP                                                                      
   EAUG   =  366.804                                                                                
   DEXC   =    0.000                                                                                
   RMAX   =    2.547    core radius for proj-oper                                                   
   RAUG   =    1.300    factor for augmentation sphere                                              
   RDEP   =    2.562    radius for radial grids                                                     
   RDEPT  =    2.128    core radius for aug-charge                                                  
                                                                                                    
   Atomic configuration                                                                             
   10 entries                                                                                       
     n  l   j            E        occ.                                                              
     1  0  0.50    -15934.8930   2.0000                                                             
     2  0  0.50     -2157.6250   2.0000                                                             
     2  1  1.50     -1917.0034   6.0000                                                             
     3  0  0.50      -333.7288   2.0000                                                             
     3  1  1.50      -256.0992   6.0000                                                             
     3  2  2.50      -127.9971  10.0000                                                             
     4  0  0.50       -40.8953   2.0000                                                             
     5  0  0.50        -3.5257   1.9990                                                             
     4  1  1.50       -22.8179   6.0000                                                             
     4  2  1.50        -1.2815   0.0010                                                             
   Description                                                                                      
     l       E           TYP  RCUT    TYP  RCUT                                                     
     0    -40.8953213     23  2.480                                                                 
     0     -3.5257161     23  2.480                                                                 
     1    -22.8178632     23  2.500                                                                 
     1    -24.1784458     23  2.500                                                                 
     2     -1.2814598     23  2.500                                                                 
     2      0.2279365     23  2.500                                                                 
  local pseudopotential read in
  partial core-charges read in
  partial kinetic energy density read in
  atomic valenz-charges read in
  non local Contribution for L=           0  read in
    real space projection operators read in
  non local Contribution for L=           0  read in
    real space projection operators read in
  non local Contribution for L=           1  read in
    real space projection operators read in
  non local Contribution for L=           1  read in
    real space projection operators read in
  non local Contribution for L=           2  read in
    real space projection operators read in
  non local Contribution for L=           2  read in
    real space projection operators read in
    PAW grid and wavefunctions read in
 
   number of l-projection  operators is LMAX  =           6
   number of lm-projection operators is LMMAX =          18
 
 POTCAR:    PAW_PBE Ti_sv 26Sep2005               
   SHA256 =  4d747badb5a5ea28d858fbac70885b3f8929d6fd9e5b0dbe1ecb9878dc164da1 Ti_sv/POTCAR          
   COPYR  = (c) Copyright 26Sep2005 Georg Kresse                                                    
   COPYR  = This file is part of the software VASP. Any use, copying, and all other rights are regul
   COPYR  = If you do not have a valid VASP license, you may not use, copy or distribute this file. 
   VRHFIN =Ti: 3p4s3d                                                                               
   LEXCH  = PE                                                                                      
   EATOM  =  1588.0892 eV,  116.7213 Ry                                                             
                                                                                                    
   TITEL  = PAW_PBE Ti_sv 26Sep2005                                                                 
   LULTRA =        F    use ultrasoft PP ?                                                          
   IUNSCR =        1    unscreen: 0-lin 1-nonlin 2-no                                               
   RPACOR =    2.000    partial core radius                                                         
   POMASS =   47.880; ZVAL   =   12.000    mass and valenz                                          
   RCORE  =    2.300    outmost cutoff radius                                                       
   RWIGS  =    2.300; RWIGS  =    1.217    wigner-seitz radius (au A)                               
   ENMAX  =  274.610; ENMIN  =  205.957 eV                                                          
   ICORE  =        3    local potential                                                             
   LCOR   =        T    correct aug charges                                                         
   LPAW   =        T    paw PP                                                                      
   EAUG   =  482.848                                                                                
   RMAX   =    2.348    core radius for proj-oper                                                   
   RAUG   =    1.300    factor for augmentation sphere                                              
   RDEP   =    2.381    radius for radial grids                                                     
   RDEPT  =    1.930    core radius for aug-charge                                                  
                                                                                                    
   Atomic configuration                                                                             
    8 entries                                                                                       
     n  l   j            E        occ.                                                              
     1  0  0.50     -4865.3608   2.0000                                                             
     2  0  0.50      -533.1368   2.0000                                                             
     2  1  1.50      -440.5031   6.0000                                                             
     3  0  0.50       -59.3186   2.0000                                                             
     4  0  0.50        -3.7291   1.0000                                                             
     3  1  1.50       -35.7012   6.0000                                                             
     3  2  2.50        -1.9157   3.0000                                                             
     4  3  2.50        -1.3606   0.0000                                                             
   Description                                                                                      
     l       E           TYP  RCUT    TYP  RCUT                                                     
     0    -59.3185931     23  1.800                                                                 
     0     -3.7290822     23  2.300                                                                 
     1    -35.7012045     23  2.300                                                                 
     1     -1.3605826     23  2.300                                                                 
     2     -1.9156920     23  2.300                                                                 
     2     -0.0236318     23  2.300                                                                 
     3     -1.3605826     23  2.300                                                                 
  local pseudopotential read in
  partial core-charges read in
  partial kinetic energy density read in
  atomic valenz-charges read in
  non local Contribution for L=           0  read in
    real space projection operators read in
  non local Contribution for L=           0  read in
    real space projection operators read in
  non local Contribution for L=           1  read in
    real space projection operators read in
  non local Contribution for L=           1  read in
    real space projection operators read in
  non local Contribution for L=           2  read in
    real space projection operators read in
  non local Contribution for L=           2  read in
    real space projection operators read in
    PAW grid and wavefunctions read in
 
   number of l-projection  operators is LMAX  =           6
   number of lm-projection operators is LMMAX =          18
 
 POTCAR:    PAW_PBE O 08Apr2002                   
   SHA256 =  818f92134a0a090dccd8ba1447fa70422a3b330e708bb4f08108d8ae51209ddf O/POTCAR              
   COPYR  = (c) Copyright 08Apr2002 Georg Kresse                                                    
   COPYR  = This file is part of the software VASP. Any use, copying, and all other rights are regul
   COPYR  = If you do not have a valid VASP license, you may not use, copy or distribute this file. 
   VRHFIN =O: s2p4                                                                                  
   LEXCH  = PE                                                                                      
   EATOM  =   432.3788 eV,   31.7789 Ry                                                             
                                                                                                    
   TITEL  = PAW_PBE O 08Apr2002                                                                     
   LULTRA =        F    use ultrasoft PP ?                                                          
   IUNSCR =        1    unscreen: 0-lin 1-nonlin 2-no                                               
   RPACOR =    1.200    partial core radius                                                         
   POMASS =   16.000; ZVAL   =    6.000    mass and valenz                                          
   RCORE  =    1.520    outmost cutoff radius                                                       
   RWIGS  =    1.550; RWIGS  =    0.820    wigner-seitz radius (au A)                               
   ENMAX  =  400.000; ENMIN  =  300.000 eV                                                          
   ICORE  =        2    local potential                                                             
   LCOR   =        T    correct aug charges                                                         
   LPAW   =        T    paw PP                                                                      
   EAUG   =  605.392                                                                                
   DEXC   =    0.000                                                                                
   RMAX   =    1.553    core radius for proj-oper                                                   
   RAUG   =    1.300    factor for augmentation sphere                                              
   RDEP   =    1.550    radius for radial grids                                                     
   RDEPT  =    1.329    core radius for aug-charge                                                  
                                                                                                    
   Atomic configuration                                                                             
    4 entries                                                                                       
     n  l   j            E        occ.                                                              
     1  0  0.50      -514.6923   2.0000                                                             
     2  0  0.50       -23.9615   2.0000                                                             
     2  1  0.50        -9.0305   4.0000                                                             
     3  2  1.50        -9.5241   0.0000                                                             
   Description                                                                                      
     l       E           TYP  RCUT    TYP  RCUT                                                     
     0    -23.9615318     23  1.200                                                                 
     0     -9.5240782     23  1.200                                                                 
     1     -9.0304911     23  1.520                                                                 
     1      8.1634956     23  1.520                                                                 
     2     -9.5240782      7  1.500                                                                 
  local pseudopotential read in
  partial core-charges read in
  partial kinetic energy density read in
  kinetic energy density of atom read in
  atomic valenz-charges read in
  non local Contribution for L=           0  read in
    real space projection operators read in
  non local Contribution for L=           0  read in
    real space projection operators read in
  non local Contribution for L=           1  read in
    real space projection operators read in
  non local Contribution for L=           1  read in
    real space projection operators read in
    PAW grid and wavefunctions read in
 
   number of l-projection  operators is LMAX  =           4
   number of lm-projection operators is LMMAX =           8
 
 Optimization of the real space projectors (new method)

 maximal supplied QI-value         = 15.12
 optimisation between [QCUT,QGAM] = [ 11.34, 22.83] = [ 36.00,145.93] Ry 
 Optimized for a Real-space Cutoff    1.56 Angstroem

   l    n(q)    QCUT    max X(q) W(low)/X(q) W(high)/X(q)  e(spline) 
   0     11    11.338    11.565    0.26E-04    0.80E-05    0.70E-07
   0     11    11.338    10.214    0.41E-04    0.15E-04    0.15E-06
   1     10    11.338   189.983    0.18E-03    0.52E-04    0.42E-06
   1     10    11.338   193.105    0.19E-03    0.52E-04    0.42E-06
   2     10    11.338   115.941    0.22E-03    0.42E-03    0.43E-06
   2     10    11.338    76.444    0.21E-03    0.41E-03    0.42E-06
 Optimization of the real space projectors (new method)

 maximal supplied QI-value         = 16.25
 optimisation between [QCUT,QGAM] = [ 11.38, 22.75] = [ 36.24,144.96] Ry 
 Optimized for a Real-space Cutoff    1.27 Angstroem

   l    n(q)    QCUT    max X(q) W(low)/X(q) W(high)/X(q)  e(spline) 
   0      9    11.376    12.277    0.53E-04    0.25E-04    0.25E-07
   0      9    11.376    11.419    0.89E-04    0.67E-05    0.35E-07
   1      8    11.376     4.010    0.13E-03    0.11E-03    0.29E-07
   1      8    11.376     6.182    0.94E-04    0.19E-03    0.11E-06
   2      8    11.376    47.177    0.13E-03    0.88E-03    0.24E-06
   2      8    11.376    42.437    0.13E-03    0.86E-03    0.23E-06
 Optimization of the real space projectors (new method)

 maximal supplied QI-value         = 24.76
 optimisation between [QCUT,QGAM] = [ 11.39, 22.77] = [ 36.31,145.25] Ry 
 Optimized for a Real-space Cutoff    1.00 Angstroem

   l    n(q)    QCUT    max X(q) W(low)/X(q) W(high)/X(q)  e(spline) 
   0      7    11.387    20.381    0.39E-03    0.13E-02    0.15E-06
   0      7    11.387    15.268    0.42E-03    0.14E-02    0.17E-06
   1      6    11.387     5.964    0.41E-03    0.11E-02    0.17E-06
   1      6    11.387     5.382    0.39E-03    0.87E-03    0.15E-06
 -----------------------------------------------------------------------------
|                                                                             |
|               ----> ADVICE to this user running VASP <----                  |
|                                                                             |
|     You enforced a specific xc type in the INCAR file but a different       |
|     type was found in the POTCAR file.                                      |
|     I HOPE YOU KNOW WHAT YOU ARE DOING!                                     |
|                                                                             |
 -----------------------------------------------------------------------------

  PAW_PBE Sr_sv 07Sep2000               :
 energy of atom  1       EATOM= -843.0319
 kinetic energy error for atom=    0.0012 (will be added to EATOM!!)
  PAW_PBE Ti_sv 26Sep2005               :
 energy of atom  2       EATOM=-1588.0892
 kinetic energy error for atom=    0.0046 (will be added to EATOM!!)
  PAW_PBE O 08Apr2002                   :
 energy of atom  3       EATOM= -432.3788
 kinetic energy error for atom=    0.0224 (will be added to EATOM!!)
 
 
 POSCAR: Sr1 Ti1 O3
  positions in direct lattice
  velocities in cartesian coordinates
 exchange correlation table for  LEXCH =       17
   RHO(1)=    0.500       N(1)  =     2000
   RHO(2)=  100.500       N(2)  =     4000

 VTST: version 4.1, (05/19/21)

 CHAIN: initializing optimizer
 
 OPT: Using VASP Conjugate-Gradient optimizer
 CHAIN: Read ICHAIN            0
 
 POSCAR: Sr1 Ti1 O3
  positions in direct lattice
  velocities in cartesian coordinates
 


--------------------------------------------------------------------------------------------------------


 ion  position               nearest neighbor table
   1  0.000  0.125  0.407- 265 2.72 237 2.78 261 2.78 217 2.78 241 2.78 189 2.79 165 2.79 169 2.79
                           145 2.79 193 2.79 194 2.79  93 3.42  94 3.42  73 3.42  74 3.42 117 3.55
   2  0.000  0.375  0.407- 266 2.72 262 2.78 238 2.78 242 2.78 218 2.78 166 2.79 190 2.79 146 2.79
                           170 2.79 195 2.79 194 2.79  95 3.42  94 3.42  75 3.42  74 3.42 116 3.55
   3  0.000  0.625  0.407- 267 2.72 239 2.78 263 2.78 219 2.78 243 2.78 191 2.79 167 2.79 171 2.79
                           147 2.79 195 2.79 196 2.79  95 3.42  96 3.42  75 3.42  76 3.42 119 3.55
   4  0.000  0.875  0.407- 269 2.72 240 2.78 220 2.78 264 2.78 244 2.78 192 2.79 172 2.79 168 2.79
                           148 2.79 196 2.79 193 2.79  96 3.42  76 3.42  93 3.42  73 3.42 120 3.55
   5  0.333  0.125  0.407- 268 2.72 221 2.78 245 2.78 229 2.78 253 2.78 173 2.79 149 2.79 181 2.79
                           157 2.79 197 2.79 198 2.79  77 3.42  78 3.42  85 3.42  86 3.42 103 3.55
   6  0.333  0.375  0.407- 273 2.72 246 2.78 222 2.78 254 2.78 230 2.78 150 2.79 174 2.79 158 2.79
                           182 2.79 199 2.79 198 2.79  79 3.42  78 3.42  87 3.42  86 3.42 102 3.55
   7  0.333  0.625  0.407- 272 2.72 223 2.78 247 2.78 231 2.78 255 2.78 175 2.79 151 2.79 183 2.79
                           159 2.79 199 2.79 200 2.79  79 3.42  80 3.42  87 3.42  88 3.42 101 3.55
   8  0.333  0.875  0.407- 270 2.72 224 2.78 232 2.78 248 2.78 256 2.78 176 2.79 184 2.79 152 2.79
                           160 2.79 200 2.79 197 2.79  80 3.42  88 3.42  77 3.42  85 3.42 111 3.55
   9  0.667  0.125  0.407- 271 2.72 225 2.78 249 2.78 233 2.78 257 2.78 177 2.79 153 2.79 185 2.79
                           161 2.79 201 2.79 202 2.79  81 3.42  82 3.42  89 3.42  90 3.42 110 3.55
  10  0.667  0.375  0.407- 274 2.72 250 2.78 226 2.78 258 2.78 234 2.78 154 2.79 178 2.79 162 2.79
                           186 2.79 203 2.79 202 2.79  83 3.42  82 3.42  91 3.42  90 3.42 108 3.55
  11  0.667  0.625  0.407- 275 2.72 227 2.78 251 2.78 235 2.78 259 2.78 179 2.79 155 2.79 187 2.79
                           163 2.79 203 2.79 204 2.79  83 3.42  84 3.42  91 3.42  92 3.42 109 3.55
  12  0.667  0.875  0.407- 277 2.72 228 2.78 252 2.78 236 2.78 260 2.78 180 2.79 156 2.79 188 2.79
                           164 2.79 204 2.79 201 2.79  84 3.42  92 3.42  81 3.42  89 3.42 104 3.55
  13  0.167  0.125  0.407- 276 2.72 229 2.78 253 2.78 217 2.78 241 2.78 181 2.79 157 2.79 169 2.79
                           145 2.79 205 2.79 206 2.79  85 3.42  86 3.42  73 3.42  74 3.42 105 3.55
  14  0.167  0.375  0.407- 280 2.72 254 2.78 242 2.78 230 2.78 218 2.78 158 2.79 146 2.79 182 2.79
                           170 2.79 207 2.79 206 2.79  87 3.42  86 3.42  75 3.42  74 3.42 107 3.55
  15  0.167  0.625  0.407- 279 2.72 231 2.78 255 2.78 219 2.78 243 2.78 183 2.79 159 2.79 171 2.79
                           147 2.79 207 2.79 208 2.79  87 3.42  88 3.42  75 3.42  76 3.42 106 3.55
  16  0.167  0.875  0.407- 278 2.72 232 2.78 220 2.78 256 2.78 244 2.78 184 2.79 172 2.79 160 2.79
                           148 2.79 208 2.79 205 2.79  88 3.42  76 3.42  85 3.42  73 3.42 112 3.55
  17  0.500  0.125  0.407- 288 2.72 233 2.78 257 2.78 221 2.78 245 2.78 185 2.79 161 2.79 173 2.79
                           149 2.79 209 2.79 210 2.79  89 3.42  90 3.42  77 3.42  78 3.42 113 3.55
  18  0.500  0.375  0.407- 287 2.72 258 2.78 234 2.78 246 2.78 222 2.78 162 2.79 186 2.79 150 2.79
                           174 2.79 211 2.79 210 2.79  91 3.42  90 3.42  79 3.42  78 3.42 115 3.55
  19  0.500  0.625  0.407- 285 2.72 235 2.78 259 2.78 223 2.78 247 2.78 187 2.79 163 2.79 175 2.79
                           151 2.79 211 2.79 212 2.79  91 3.42  92 3.42  79 3.42  80 3.42 114 3.55
  20  0.500  0.875  0.407- 286 2.72 236 2.78 224 2.78 260 2.78 248 2.78 188 2.79 176 2.79 164 2.79
                           152 2.79 212 2.79 209 2.79  92 3.42  80 3.42  89 3.42  77 3.42 118 3.55
  21  0.833  0.125  0.407- 281 2.72 225 2.78 249 2.78 237 2.78 261 2.78 177 2.79 153 2.79 189 2.79
                           165 2.79 213 2.79 214 2.79  81 3.42  82 3.42  93 3.42  94 3.42 110 3.55
  22  0.833  0.375  0.407- 282 2.72 250 2.78 226 2.78 262 2.78 238 2.78 154 2.79 178 2.79 166 2.79
                           190 2.79 215 2.79 214 2.79  83 3.42  82 3.42  95 3.42  94 3.42 108 3.55
  23  0.833  0.625  0.407- 284 2.72 227 2.78 251 2.78 239 2.78 263 2.78 179 2.79 155 2.79 191 2.79
                           167 2.79 215 2.79 216 2.79  83 3.42  84 3.42  95 3.42  96 3.42 109 3.55
  24  0.833  0.875  0.407- 283 2.72 228 2.78 252 2.78 240 2.78 264 2.78 180 2.79 156 2.79 192 2.79
                           168 2.79 216 2.79 213 2.79  84 3.42  96 3.42  81 3.42  93 3.42 104 3.55
  25  0.000  0.000  0.504- 341 2.59 312 2.70 336 2.70 293 2.70 313 2.70 265 2.80 269 2.80 264 2.87
                           237 2.87 244 2.87 217 2.87 193 2.92 117 3.42  97 3.42 120 3.42  99 3.42
  26  0.000  0.250  0.504- 342 2.59 335 2.70 309 2.70 314 2.70 289 2.70 266 2.80 265 2.80 238 2.87
                           261 2.87 218 2.87 241 2.87 194 2.92 116 3.42 117 3.42  98 3.42  97 3.42
  27  0.000  0.750  0.504- 338 2.59 334 2.70 311 2.70 316 2.70 291 2.70 269 2.80 267 2.80 240 2.87
                           263 2.87 220 2.87 243 2.87 196 2.92 120 3.42  99 3.42 119 3.42 100 3.42
  28  0.000  0.500  0.504- 337 2.59 333 2.70 308 2.70 315 2.70 290 2.70 267 2.80 266 2.80 239 2.87
                           262 2.87 219 2.87 242 2.87 195 2.92 116 3.42 119 3.42  98 3.42 100 3.42
  29  0.333  0.500  0.504- 343 2.59 318 2.70 297 2.70 327 2.70 302 2.70 273 2.80 272 2.80 223 2.87
                           246 2.87 231 2.87 254 2.87 199 2.92 101 3.42 102 3.42 106 3.42 107 3.42
  30  0.333  0.250  0.504- 339 2.59 319 2.70 292 2.70 326 2.70 301 2.70 273 2.80 268 2.80 222 2.87
                           245 2.87 230 2.87 253 2.87 198 2.92 102 3.42 103 3.42 107 3.42 105 3.42
  31  0.333  0.000  0.504- 340 2.59 294 2.70 317 2.70 304 2.70 325 2.70 268 2.80 270 2.80 248 2.87
                           221 2.87 256 2.87 229 2.87 197 2.92 103 3.42 105 3.42 111 3.42 112 3.42
  32  0.333  0.750  0.504- 344 2.59 322 2.70 296 2.70 328 2.70 303 2.70 270 2.80 272 2.80 224 2.87
                           247 2.87 232 2.87 255 2.87 200 2.92 111 3.42 112 3.42 101 3.42 106 3.42
  33  0.667  0.000  0.504- 346 2.59 300 2.70 321 2.70 310 2.70 329 2.70 271 2.80 277 2.80 252 2.87
                           225 2.87 260 2.87 233 2.87 201 2.92 110 3.42 104 3.42 113 3.42 118 3.42
  34  0.667  0.500  0.504- 348 2.59 323 2.70 298 2.70 332 2.70 307 2.70 275 2.80 274 2.80 227 2.87
                           250 2.87 235 2.87 258 2.87 203 2.92 108 3.42 109 3.42 114 3.42 115 3.42
  35  0.667  0.250  0.504- 345 2.59 320 2.70 295 2.70 330 2.70 305 2.70 274 2.80 271 2.80 226 2.87
                           249 2.87 234 2.87 257 2.87 202 2.92 108 3.42 110 3.42 115 3.42 113 3.42
  36  0.667  0.750  0.504- 347 2.59 324 2.70 299 2.70 331 2.70 306 2.70 277 2.80 275 2.80 228 2.87
                           251 2.87 236 2.87 259 2.87 204 2.92 104 3.42 109 3.42 118 3.42 114 3.42
  37  0.167  0.000  0.504- 349 2.59 304 2.70 325 2.70 293 2.70 313 2.70 276 2.80 278 2.80 256 2.87
                           229 2.87 244 2.87 217 2.87 205 2.92 105 3.42  97 3.42 112 3.42  99 3.42
  38  0.167  0.250  0.504- 350 2.59 326 2.70 301 2.70 314 2.70 289 2.70 280 2.80 276 2.80 230 2.87
                           253 2.87 218 2.87 241 2.87 206 2.92 107 3.42 105 3.42  98 3.42  97 3.42
  39  0.167  0.500  0.504- 352 2.59 327 2.70 315 2.70 302 2.70 290 2.70 280 2.80 279 2.80 231 2.87
                           219 2.87 254 2.87 242 2.87 207 2.92 106 3.42 107 3.42  98 3.42 100 3.42
  40  0.500  0.000  0.504- 355 2.59 310 2.70 329 2.70 294 2.70 317 2.70 288 2.80 286 2.80 260 2.87
                           233 2.87 248 2.87 221 2.87 209 2.92 113 3.42 103 3.42 118 3.42 111 3.42
  41  0.167  0.750  0.504- 351 2.59 328 2.70 303 2.70 316 2.70 291 2.70 278 2.80 279 2.80 232 2.87
                           255 2.87 220 2.87 243 2.87 208 2.92 112 3.42  99 3.42 106 3.42 100 3.42
  42  0.500  0.750  0.504- 360 2.59 331 2.70 306 2.70 322 2.70 296 2.70 286 2.80 285 2.80 236 2.87
                           259 2.87 224 2.87 247 2.87 212 2.92 118 3.42 111 3.42 114 3.42 101 3.42
  43  0.833  0.000  0.504- 359 2.59 300 2.70 321 2.70 312 2.70 336 2.70 281 2.80 283 2.80 252 2.87
                           225 2.87 264 2.87 237 2.87 213 2.92 110 3.42 104 3.42 117 3.42 120 3.42
  44  0.500  0.500  0.504- 353 2.59 332 2.70 307 2.70 318 2.70 297 2.70 287 2.80 285 2.80 235 2.87
                           258 2.87 223 2.87 246 2.87 211 2.92 114 3.42 115 3.42 101 3.42 102 3.42
  45  0.500  0.250  0.504- 354 2.59 330 2.70 305 2.70 319 2.70 292 2.70 287 2.80 288 2.80 234 2.87
                           257 2.87 222 2.87 245 2.87 210 2.92 115 3.42 113 3.42 102 3.42 103 3.42
  46  0.833  0.250  0.504- 357 2.59 320 2.70 295 2.70 335 2.70 309 2.70 282 2.80 281 2.80 226 2.87
                           249 2.87 238 2.87 261 2.87 214 2.92 108 3.42 110 3.42 116 3.42 117 3.42
  47  0.833  0.500  0.504- 358 2.59 323 2.70 298 2.70 333 2.70 308 2.70 284 2.80 282 2.80 227 2.87
                           250 2.87 239 2.87 262 2.87 215 2.92 108 3.42 109 3.42 116 3.42 119 3.42
  48  0.833  0.750  0.504- 356 2.59 324 2.70 299 2.70 334 2.70 311 2.70 283 2.80 284 2.80 228 2.87
                           251 2.87 240 2.87 263 2.87 216 2.92 104 3.42 109 3.42 120 3.42 119 3.42
  49  0.000  0.125  0.621- 398 2.49 387 2.49 372 2.49 374 2.49 341 2.93 342 2.93 336 3.32 309 3.32
                           313 3.32 289 3.32 142 3.46 141 3.46 121 3.46 124 3.46  55 3.95  69 3.95
  50  0.000  0.625  0.621- 399 2.49 380 2.49 370 2.49 378 2.49 337 2.93 338 2.93 333 3.32 311 3.32
                           315 3.32 291 3.32 144 3.46 143 3.46 123 3.46 122 3.46  59 3.95  67 3.95
  51  0.000  0.375  0.621- 379 2.49 400 2.49 373 2.49 369 2.49 337 2.93 342 2.93 308 3.32 335 3.32
                           290 3.32 314 3.32 141 3.46 144 3.46 123 3.46 124 3.46  54 3.95  70 3.95
  52  0.667  0.625  0.621- 365 2.49 390 2.49 404 2.49 388 2.49 348 2.93 347 2.93 323 3.32 299 3.32
                           332 3.32 306 3.32 128 3.46 127 3.46 139 3.46 140 3.46  67 3.95  72 3.95
  53  0.667  0.875  0.621- 366 2.49 391 2.49 397 2.49 386 2.49 347 2.93 346 2.93 324 3.32 300 3.32
                           331 3.32 310 3.32 127 3.46 140 3.46 125 3.46 135 3.46  68 3.95  71 3.95
  54  0.167  0.375  0.621- 382 2.49 373 2.49 407 2.49 369 2.49 350 2.93 352 2.93 302 3.32 290 3.32
                           326 3.32 314 3.32 133 3.46 138 3.46 123 3.46 124 3.46  51 3.95  63 3.95
  55  0.167  0.125  0.621- 408 2.49 392 2.49 372 2.49 374 2.49 349 2.93 350 2.93 325 3.32 301 3.32
                           313 3.32 289 3.32 134 3.46 133 3.46 121 3.46 124 3.46  49 3.95  65 3.95
  56  0.500  0.125  0.621- 402 2.49 384 2.49 361 2.49 375 2.49 355 2.93 354 2.93 329 3.32 305 3.32
                           317 3.32 292 3.32 135 3.46 136 3.46 132 3.46 131 3.46  65 3.95  61 3.95
  57  0.500  0.375  0.621- 389 2.49 403 2.49 376 2.49 362 2.49 353 2.93 354 2.93 307 3.32 330 3.32
                           297 3.32 319 3.32 136 3.46 139 3.46 129 3.46 131 3.46  63 3.95  62 3.95
  58  0.167  0.875  0.621- 406 2.49 371 2.49 385 2.49 377 2.49 351 2.93 349 2.93 328 3.32 316 3.32
                           304 3.32 293 3.32 137 3.46 122 3.46 134 3.46 121 3.46  60 3.95  66 3.95
  59  0.167  0.625  0.621- 405 2.49 383 2.49 370 2.49 378 2.49 352 2.93 351 2.93 327 3.32 303 3.32
                           315 3.32 291 3.32 138 3.46 137 3.46 123 3.46 122 3.46  50 3.95  64 3.95
  60  0.333  0.875  0.621- 363 2.49 406 2.49 395 2.49 385 2.49 344 2.93 340 2.93 322 3.32 328 3.32
                           294 3.32 304 3.32 130 3.46 137 3.46 132 3.46 134 3.46  71 3.95  58 3.95
  61  0.667  0.125  0.621- 368 2.49 393 2.49 402 2.49 384 2.49 346 2.93 345 2.93 321 3.32 295 3.32
                           329 3.32 305 3.32 125 3.46 126 3.46 135 3.46 136 3.46  69 3.95  56 3.95
  62  0.667  0.375  0.621- 394 2.49 367 2.49 389 2.49 403 2.49 345 2.93 348 2.93 298 3.32 320 3.32
                           307 3.32 330 3.32 126 3.46 128 3.46 136 3.46 139 3.46  70 3.95  57 3.95
  63  0.333  0.375  0.621- 376 2.49 362 2.49 382 2.49 407 2.49 339 2.93 343 2.93 297 3.32 319 3.32
                           302 3.32 326 3.32 129 3.46 131 3.46 133 3.46 138 3.46  57 3.95  54 3.95
  64  0.333  0.625  0.621- 364 2.49 396 2.49 405 2.49 383 2.49 343 2.93 344 2.93 318 3.32 296 3.32
                           327 3.32 303 3.32 129 3.46 130 3.46 138 3.46 137 3.46  72 3.95  59 3.95
  65  0.333  0.125  0.621- 361 2.49 375 2.49 408 2.49 392 2.49 340 2.93 339 2.93 317 3.32 292 3.32
                           325 3.32 301 3.32 132 3.46 131 3.46 134 3.46 133 3.46  56 3.95  55 3.95
  66  0.000  0.875  0.621- 401 2.49 371 2.49 381 2.49 377 2.49 338 2.93 341 2.93 334 3.32 316 3.32
                           312 3.32 293 3.32 143 3.46 122 3.46 142 3.46 121 3.46  58 3.95  68 3.95
  67  0.833  0.625  0.621- 365 2.49 390 2.49 399 2.49 380 2.49 358 2.93 356 2.93 323 3.32 299 3.32
                           333 3.32 311 3.32 128 3.46 127 3.46 144 3.46 143 3.46  52 3.95  50 3.95
  68  0.833  0.875  0.621- 366 2.49 391 2.49 401 2.49 381 2.49 356 2.93 359 2.93 324 3.32 300 3.32
                           334 3.32 312 3.32 127 3.46 143 3.46 125 3.46 142 3.46  53 3.95  66 3.95
  69  0.833  0.125  0.621- 368 2.49 393 2.49 398 2.49 387 2.49 359 2.93 357 2.93 321 3.32 295 3.32
                           336 3.32 309 3.32 125 3.46 126 3.46 142 3.46 141 3.46  61 3.95  49 3.95
  70  0.833  0.375  0.621- 394 2.49 367 2.49 379 2.49 400 2.49 357 2.93 358 2.93 298 3.32 320 3.32
                           308 3.32 335 3.32 126 3.46 128 3.46 141 3.46 144 3.46  62 3.95  51 3.95
  71  0.500  0.875  0.621- 397 2.49 363 2.49 386 2.49 395 2.49 360 2.93 355 2.93 331 3.32 322 3.32
                           310 3.32 294 3.32 140 3.46 130 3.46 135 3.46 132 3.46  60 3.95  53 3.95
  72  0.500  0.625  0.621- 404 2.49 388 2.49 364 2.49 396 2.49 353 2.93 360 2.93 332 3.32 306 3.32
                           318 3.32 296 3.32 139 3.46 140 3.46 129 3.46 130 3.46  64 3.95  52 3.95
  73  0.083  0.000  0.407- 244 1.96 217 1.96 148 1.97 169 1.97 193 1.97 205 1.97   1 3.42  13 3.42
                             4 3.42  16 3.42  25 3.52  37 3.52
  74  0.083  0.250  0.407- 218 1.96 241 1.96 170 1.97 145 1.97 194 1.97 206 1.97   2 3.42  14 3.42
                            13 3.42   1 3.42  26 3.52  38 3.52
  75  0.083  0.500  0.407- 219 1.96 242 1.96 171 1.97 146 1.97 195 1.97 207 1.97  14 3.42  15 3.42
                             2 3.42   3 3.42  28 3.52  39 3.52
  76  0.083  0.750  0.407- 220 1.96 243 1.96 172 1.97 147 1.97 196 1.97 208 1.97   4 3.42  16 3.42
                            15 3.42   3 3.42  27 3.52  41 3.52
  77  0.417  0.000  0.407- 248 1.96 221 1.96 152 1.97 173 1.97 197 1.97 209 1.97   5 3.42   8 3.42
                            17 3.42  20 3.42  31 3.52  40 3.52
  78  0.417  0.250  0.407- 222 1.96 245 1.96 174 1.97 149 1.97 198 1.97 210 1.97   6 3.42   5 3.42
                            18 3.42  17 3.42  30 3.52  45 3.52
  79  0.417  0.500  0.407- 223 1.96 246 1.96 175 1.97 150 1.97 199 1.97 211 1.97   6 3.42   7 3.42
                            18 3.42  19 3.42  29 3.52  44 3.52
  80  0.417  0.750  0.407- 224 1.96 247 1.96 176 1.97 151 1.97 200 1.97 212 1.97   8 3.42   7 3.42
                            20 3.42  19 3.42  32 3.52  42 3.52
  81  0.750  0.000  0.407- 252 1.96 225 1.96 156 1.97 177 1.97 201 1.97 213 1.97   9 3.42  21 3.42
                            12 3.42  24 3.42  33 3.52  43 3.52
  82  0.750  0.250  0.407- 226 1.96 249 1.96 178 1.97 153 1.97 202 1.97 214 1.97  10 3.42   9 3.42
                            22 3.42  21 3.42  35 3.52  46 3.52
  83  0.750  0.500  0.407- 227 1.96 250 1.96 179 1.97 154 1.97 203 1.97 215 1.97  10 3.42  11 3.42
                            22 3.42  23 3.42  34 3.52  47 3.52
  84  0.750  0.750  0.407- 228 1.96 251 1.96 180 1.97 155 1.97 204 1.97 216 1.97  12 3.42  24 3.42
                            11 3.42  23 3.42  36 3.52  48 3.52
  85  0.250  0.000  0.407- 256 1.96 229 1.96 160 1.97 181 1.97 205 1.97 197 1.97  13 3.42   5 3.42
                            16 3.42   8 3.42  37 3.52  31 3.52
  86  0.250  0.250  0.407- 230 1.96 253 1.96 182 1.97 157 1.97 206 1.97 198 1.97  14 3.42  13 3.42
                             6 3.42   5 3.42  38 3.52  30 3.52
  87  0.250  0.500  0.407- 231 1.96 254 1.96 183 1.97 158 1.97 207 1.97 199 1.97  14 3.42  15 3.42
                             6 3.42   7 3.42  39 3.52  29 3.52
  88  0.250  0.750  0.407- 232 1.96 255 1.96 184 1.97 159 1.97 208 1.97 200 1.97  16 3.42   8 3.42
                            15 3.42   7 3.42  41 3.52  32 3.52
  89  0.583  0.000  0.407- 260 1.96 233 1.96 164 1.97 185 1.97 209 1.97 201 1.97  17 3.42   9 3.42
                            20 3.42  12 3.42  40 3.52  33 3.52
  90  0.583  0.250  0.407- 234 1.96 257 1.96 186 1.97 161 1.97 210 1.97 202 1.97  18 3.42  17 3.42
                            10 3.42   9 3.42  45 3.52  35 3.52
  91  0.583  0.500  0.407- 235 1.96 258 1.96 187 1.97 162 1.97 211 1.97 203 1.97  18 3.42  19 3.42
                            10 3.42  11 3.42  44 3.52  34 3.52
  92  0.583  0.750  0.407- 236 1.96 259 1.96 188 1.97 163 1.97 212 1.97 204 1.97  20 3.42  12 3.42
                            19 3.42  11 3.42  42 3.52  36 3.52
  93  0.917  0.000  0.407- 264 1.96 237 1.96 168 1.97 189 1.97 193 1.97 213 1.97   1 3.42   4 3.42
                            21 3.42  24 3.42  25 3.52  43 3.52
  94  0.917  0.250  0.407- 238 1.96 261 1.96 190 1.97 165 1.97 194 1.97 214 1.97   2 3.42   1 3.42
                            22 3.42  21 3.42  26 3.52  46 3.52
  95  0.917  0.500  0.407- 239 1.96 262 1.96 191 1.97 166 1.97 195 1.97 215 1.97   2 3.42   3 3.42
                            22 3.42  23 3.42  28 3.52  47 3.52
  96  0.917  0.750  0.407- 240 1.96 263 1.96 192 1.97 167 1.97 196 1.97 216 1.97   4 3.42   3 3.42
                            24 3.42  23 3.42  27 3.52  48 3.52
  97  0.083  0.125  0.505- 313 1.85 289 1.85 265 1.99 276 1.99 217 2.10 241 2.10  25 3.42  37 3.42
                            26 3.42  38 3.42   1 3.55  13 3.55  49 3.98  55 3.98
  98  0.083  0.375  0.505- 290 1.85 314 1.85 266 1.99 280 1.99 242 2.10 218 2.10  38 3.42  39 3.42
                            26 3.42  28 3.42   2 3.55  14 3.55  51 3.98  54 3.98
  99  0.083  0.875  0.505- 316 1.85 293 1.85 269 1.99 278 1.99 220 2.10 244 2.10  27 3.42  41 3.42
                            37 3.42  25 3.42   4 3.55  16 3.55  58 3.98  66 3.98
 100  0.083  0.625  0.505- 315 1.85 291 1.85 267 1.99 279 1.99 219 2.10 243 2.10  28 3.42  39 3.42
                            27 3.42  41 3.42   3 3.55  15 3.55  50 3.98  59 3.98
 101  0.417  0.625  0.505- 318 1.85 296 1.85 272 1.99 285 1.99 223 2.10 247 2.10  29 3.42  32 3.42
                            44 3.42  42 3.42   7 3.55  19 3.55  64 3.98  72 3.98
 102  0.417  0.375  0.505- 297 1.85 319 1.85 273 1.99 287 1.99 246 2.10 222 2.10  29 3.42  30 3.42
                            44 3.42  45 3.42   6 3.55  18 3.55  63 3.98  57 3.98
 103  0.417  0.125  0.505- 317 1.85 292 1.85 268 1.99 288 1.99 221 2.10 245 2.10  31 3.42  30 3.42
                            40 3.42  45 3.42   5 3.55  17 3.55  65 3.98  56 3.98
 104  0.750  0.875  0.505- 324 1.85 300 1.85 277 1.99 283 1.99 228 2.10 252 2.10  36 3.42  48 3.42
                            33 3.42  43 3.42  12 3.55  24 3.55  53 3.98  68 3.98
 105  0.250  0.125  0.505- 325 1.85 301 1.85 276 1.99 268 1.99 229 2.10 253 2.10  37 3.42  38 3.42
                            31 3.42  30 3.42  13 3.55   5 3.55  55 3.98  65 3.98
 106  0.250  0.625  0.505- 327 1.85 303 1.85 279 1.99 272 1.99 231 2.10 255 2.10  39 3.42  41 3.42
                            29 3.42  32 3.42  15 3.55   7 3.55  59 3.98  64 3.98
 107  0.250  0.375  0.505- 302 1.85 326 1.85 280 1.99 273 1.99 254 2.10 230 2.10  38 3.42  39 3.42
                            29 3.42  30 3.42  14 3.55   6 3.55  54 3.98  63 3.98
 108  0.750  0.375  0.505- 298 1.85 320 1.85 274 1.99 282 1.99 250 2.10 226 2.10  34 3.42  35 3.42
                            46 3.42  47 3.42  10 3.55  22 3.55  62 3.98  70 3.98
 109  0.750  0.625  0.505- 323 1.85 299 1.85 275 1.99 284 1.99 227 2.10 251 2.10  34 3.42  36 3.42
                            47 3.42  48 3.42  11 3.55  23 3.55  52 3.98  67 3.98
 110  0.750  0.125  0.505- 321 1.85 295 1.85 271 1.99 281 1.99 225 2.10 249 2.10  33 3.42  35 3.42
                            43 3.42  46 3.42   9 3.55  21 3.55  61 3.98  69 3.98
 111  0.417  0.875  0.505- 322 1.85 294 1.85 270 1.99 286 1.99 224 2.10 248 2.10  32 3.42  42 3.42
                            31 3.42  40 3.42   8 3.55  20 3.55  60 3.98  71 3.98
 112  0.250  0.875  0.505- 328 1.85 304 1.85 278 1.99 270 1.99 232 2.10 256 2.10  41 3.42  32 3.42
                            37 3.42  31 3.42  16 3.55   8 3.55  58 3.98  60 3.98
 113  0.583  0.125  0.505- 329 1.85 305 1.85 288 1.99 271 1.99 233 2.10 257 2.10  40 3.42  45 3.42
                            33 3.42  35 3.42  17 3.55   9 3.55  56 3.98  61 3.98
 114  0.583  0.625  0.505- 332 1.85 306 1.85 285 1.99 275 1.99 235 2.10 259 2.10  44 3.42  42 3.42
                            34 3.42  36 3.42  19 3.55  11 3.55  72 3.98  52 3.98
 115  0.583  0.375  0.505- 307 1.85 330 1.85 287 1.99 274 1.99 258 2.10 234 2.10  44 3.42  45 3.42
                            34 3.42  35 3.42  18 3.55  10 3.55  57 3.98  62 3.98
 116  0.917  0.375  0.505- 308 1.85 335 1.85 266 1.99 282 1.99 262 2.10 238 2.10  26 3.42  28 3.42
                            46 3.42  47 3.42   2 3.55  22 3.55  51 3.98  70 3.98
 117  0.917  0.125  0.505- 336 1.85 309 1.85 265 1.99 281 1.99 237 2.10 261 2.10  25 3.42  26 3.42
                            43 3.42  46 3.42   1 3.55  21 3.55  49 3.98  69 3.98
 118  0.583  0.875  0.505- 331 1.85 310 1.85 286 1.99 277 1.99 236 2.10 260 2.10  42 3.42  36 3.42
                            40 3.42  33 3.42  20 3.55  12 3.55  71 3.98  53 3.98
 119  0.917  0.625  0.505- 333 1.85 311 1.85 267 1.99 284 1.99 239 2.10 263 2.10  28 3.42  27 3.42
                            47 3.42  48 3.42   3 3.55  23 3.55  50 3.98  67 3.98
 120  0.917  0.875  0.505- 334 1.85 312 1.85 269 1.99 283 1.99 240 2.10 264 2.10  27 3.42  48 3.42
                            25 3.42  43 3.42   4 3.55  24 3.55  66 3.98  68 3.98
 121  0.083  0.000  0.602- 377 1.80 372 1.80 341 2.00 349 2.00 293 2.18 313 2.18  49 3.46  55 3.46
                            58 3.46  66 3.46  25 3.52  37 3.52
 122  0.083  0.750  0.602- 371 1.80 378 1.80 338 2.00 351 2.00 316 2.18 291 2.18  58 3.46  66 3.46
                            59 3.46  50 3.46  27 3.52  41 3.52
 123  0.083  0.500  0.602- 370 1.80 373 1.80 337 2.00 352 2.00 315 2.18 290 2.18  54 3.46  59 3.46
                            50 3.46  51 3.46  28 3.52  39 3.52
 124  0.083  0.250  0.602- 369 1.80 374 1.80 342 2.00 350 2.00 314 2.18 289 2.18  51 3.46  54 3.46
                            49 3.46  55 3.46  26 3.52  38 3.52
 125  0.750  0.000  0.602- 391 1.80 368 1.80 346 2.00 359 2.00 300 2.18 321 2.18  61 3.46  69 3.46
                            53 3.46  68 3.46  33 3.52  43 3.52
 126  0.750  0.250  0.602- 367 1.80 393 1.80 345 2.00 357 2.00 320 2.18 295 2.18  62 3.46  61 3.46
                            70 3.46  69 3.46  35 3.52  46 3.52
 127  0.750  0.750  0.602- 366 1.80 390 1.80 347 2.00 356 2.00 324 2.18 299 2.18  53 3.46  68 3.46
                            52 3.46  67 3.46  36 3.52  48 3.52
 128  0.750  0.500  0.602- 365 1.80 394 1.80 348 2.00 358 2.00 323 2.18 298 2.18  52 3.46  62 3.46
                            67 3.46  70 3.46  34 3.52  47 3.52
 129  0.417  0.500  0.602- 364 1.80 376 1.80 343 2.00 353 2.00 318 2.18 297 2.18  63 3.46  64 3.46
                            57 3.46  72 3.46  29 3.52  44 3.52
 130  0.417  0.750  0.602- 363 1.80 396 1.80 344 2.00 360 2.00 322 2.18 296 2.18  60 3.46  64 3.46
                            71 3.46  72 3.46  32 3.52  42 3.52
 131  0.417  0.250  0.602- 362 1.80 375 1.80 339 2.00 354 2.00 319 2.18 292 2.18  63 3.46  65 3.46
                            57 3.46  56 3.46  30 3.52  45 3.52
 132  0.417  0.000  0.602- 395 1.80 361 1.80 340 2.00 355 2.00 294 2.18 317 2.18  65 3.46  60 3.46
                            56 3.46  71 3.46  31 3.52  40 3.52
 133  0.250  0.250  0.602- 407 1.80 392 1.80 350 2.00 339 2.00 326 2.18 301 2.18  54 3.46  55 3.46
                            63 3.46  65 3.46  38 3.52  30 3.52
 134  0.250  0.000  0.602- 385 1.80 408 1.80 349 2.00 340 2.00 304 2.18 325 2.18  55 3.46  65 3.46
                            58 3.46  60 3.46  37 3.52  31 3.52
 135  0.583  0.000  0.602- 386 1.80 402 1.80 355 2.00 346 2.00 310 2.18 329 2.18  56 3.46  61 3.46
                            71 3.46  53 3.46  40 3.52  33 3.52
 136  0.583  0.250  0.602- 403 1.80 384 1.80 354 2.00 345 2.00 330 2.18 305 2.18  57 3.46  56 3.46
                            62 3.46  61 3.46  45 3.52  35 3.52
 137  0.250  0.750  0.602- 406 1.80 383 1.80 351 2.00 344 2.00 328 2.18 303 2.18  58 3.46  60 3.46
                            59 3.46  64 3.46  41 3.52  32 3.52
 138  0.250  0.500  0.602- 405 1.80 382 1.80 352 2.00 343 2.00 327 2.18 302 2.18  54 3.46  59 3.46
                            63 3.46  64 3.46  39 3.52  29 3.52
 139  0.583  0.500  0.602- 404 1.80 389 1.80 353 2.00 348 2.00 332 2.18 307 2.18  57 3.46  72 3.46
                            62 3.46  52 3.46  44 3.52  34 3.52
 140  0.583  0.750  0.602- 397 1.80 388 1.80 360 2.00 347 2.00 331 2.18 306 2.18  71 3.46  53 3.46
                            72 3.46  52 3.46  42 3.52  36 3.52
 141  0.917  0.250  0.602- 400 1.80 387 1.80 342 2.00 357 2.00 335 2.18 309 2.18  51 3.46  49 3.46
                            70 3.46  69 3.46  26 3.52  46 3.52
 142  0.917  0.000  0.602- 381 1.80 398 1.80 341 2.00 359 2.00 312 2.18 336 2.18  49 3.46  66 3.46
                            69 3.46  68 3.46  25 3.52  43 3.52
 143  0.917  0.750  0.602- 401 1.80 380 1.80 338 2.00 356 2.00 334 2.18 311 2.18  66 3.46  50 3.46
                            68 3.46  67 3.46  27 3.52  48 3.52
 144  0.917  0.500  0.602- 399 1.80 379 1.80 337 2.00 358 2.00 333 2.18 308 2.18  50 3.46  51 3.46
                            67 3.46  70 3.46  28 3.52  47 3.52
 145  0.083  0.188  0.361-  74 1.97  13 2.79   1 2.79
 146  0.083  0.437  0.361-  75 1.97  14 2.79   2 2.79
 147  0.083  0.687  0.361-  76 1.97  15 2.79   3 2.79
 148  0.083  0.938  0.361-  73 1.97  16 2.79   4 2.79
 149  0.417  0.188  0.361-  78 1.97   5 2.79  17 2.79
 150  0.417  0.437  0.361-  79 1.97   6 2.79  18 2.79
 151  0.417  0.687  0.361-  80 1.97   7 2.79  19 2.79
 152  0.417  0.938  0.361-  77 1.97   8 2.79  20 2.79
 153  0.750  0.188  0.361-  82 1.97   9 2.79  21 2.79
 154  0.750  0.437  0.361-  83 1.97  10 2.79  22 2.79
 155  0.750  0.687  0.361-  84 1.97  11 2.79  23 2.79
 156  0.750  0.938  0.361-  81 1.97  12 2.79  24 2.79
 157  0.250  0.188  0.361-  86 1.97  13 2.79   5 2.79
 158  0.250  0.437  0.361-  87 1.97  14 2.79   6 2.79
 159  0.250  0.687  0.361-  88 1.97  15 2.79   7 2.79
 160  0.250  0.938  0.361-  85 1.97  16 2.79   8 2.79
 161  0.583  0.188  0.361-  90 1.97  17 2.79   9 2.79
 162  0.583  0.437  0.361-  91 1.97  18 2.79  10 2.79
 163  0.583  0.687  0.361-  92 1.97  19 2.79  11 2.79
 164  0.583  0.938  0.361-  89 1.97  20 2.79  12 2.79
 165  0.917  0.188  0.361-  94 1.97   1 2.79  21 2.79
 166  0.917  0.437  0.361-  95 1.97   2 2.79  22 2.79
 167  0.917  0.687  0.361-  96 1.97   3 2.79  23 2.79
 168  0.917  0.938  0.361-  93 1.97   4 2.79  24 2.79
 169  0.083  0.063  0.361-  73 1.97  13 2.79   1 2.79
 170  0.083  0.312  0.361-  74 1.97  14 2.79   2 2.79
 171  0.083  0.563  0.361-  75 1.97  15 2.79   3 2.79
 172  0.083  0.812  0.361-  76 1.97  16 2.79   4 2.79
 173  0.417  0.063  0.361-  77 1.97   5 2.79  17 2.79
 174  0.417  0.312  0.361-  78 1.97   6 2.79  18 2.79
 175  0.417  0.563  0.361-  79 1.97   7 2.79  19 2.79
 176  0.417  0.812  0.361-  80 1.97   8 2.79  20 2.79
 177  0.750  0.063  0.361-  81 1.97   9 2.79  21 2.79
 178  0.750  0.312  0.361-  82 1.97  10 2.79  22 2.79
 179  0.750  0.563  0.361-  83 1.97  11 2.79  23 2.79
 180  0.750  0.812  0.361-  84 1.97  12 2.79  24 2.79
 181  0.250  0.063  0.361-  85 1.97  13 2.79   5 2.79
 182  0.250  0.312  0.361-  86 1.97  14 2.79   6 2.79
 183  0.250  0.563  0.361-  87 1.97  15 2.79   7 2.79
 184  0.250  0.812  0.361-  88 1.97  16 2.79   8 2.79
 185  0.583  0.063  0.361-  89 1.97  17 2.79   9 2.79
 186  0.583  0.312  0.361-  90 1.97  18 2.79  10 2.79
 187  0.583  0.563  0.361-  91 1.97  19 2.79  11 2.79
 188  0.583  0.812  0.361-  92 1.97  20 2.79  12 2.79
 189  0.917  0.063  0.361-  93 1.97   1 2.79  21 2.79
 190  0.917  0.312  0.361-  94 1.97   2 2.79  22 2.79
 191  0.917  0.563  0.361-  95 1.97   3 2.79  23 2.79
 192  0.917  0.812  0.361-  96 1.97   4 2.79  24 2.79
 193  0.000  0.000  0.407-  93 1.97  73 1.97   1 2.79   4 2.79  25 2.92
 194  0.000  0.250  0.407-  94 1.97  74 1.97   2 2.79   1 2.79  26 2.92
 195  0.000  0.500  0.407-  95 1.97  75 1.97   2 2.79   3 2.79  28 2.92
 196  0.000  0.750  0.407-  96 1.97  76 1.97   4 2.79   3 2.79  27 2.92
 197  0.333  0.000  0.407-  77 1.97  85 1.97   5 2.79   8 2.79  31 2.92
 198  0.333  0.250  0.407-  78 1.97  86 1.97   6 2.79   5 2.79  30 2.92
 199  0.333  0.500  0.407-  79 1.97  87 1.97   6 2.79   7 2.79  29 2.92
 200  0.333  0.750  0.407-  80 1.97  88 1.97   8 2.79   7 2.79  32 2.92
 201  0.667  0.000  0.407-  81 1.97  89 1.97   9 2.79  12 2.79  33 2.92
 202  0.667  0.250  0.407-  82 1.97  90 1.97  10 2.79   9 2.79  35 2.92
 203  0.667  0.500  0.407-  83 1.97  91 1.97  10 2.79  11 2.79  34 2.92
 204  0.667  0.750  0.407-  84 1.97  92 1.97  12 2.79  11 2.79  36 2.92
 205  0.167  0.000  0.407-  85 1.97  73 1.97  13 2.79  16 2.79  37 2.92
 206  0.167  0.250  0.407-  86 1.97  74 1.97  14 2.79  13 2.79  38 2.92
 207  0.167  0.500  0.407-  87 1.97  75 1.97  14 2.79  15 2.79  39 2.92
 208  0.167  0.750  0.407-  88 1.97  76 1.97  16 2.79  15 2.79  41 2.92
 209  0.500  0.000  0.407-  89 1.97  77 1.97  17 2.79  20 2.79  40 2.92
 210  0.500  0.250  0.407-  90 1.97  78 1.97  18 2.79  17 2.79  45 2.92
 211  0.500  0.500  0.407-  91 1.97  79 1.97  18 2.79  19 2.79  44 2.92
 212  0.500  0.750  0.407-  92 1.97  80 1.97  20 2.79  19 2.79  42 2.92
 213  0.833  0.000  0.407-  81 1.97  93 1.97  21 2.79  24 2.79  43 2.92
 214  0.833  0.250  0.407-  82 1.97  94 1.97  22 2.79  21 2.79  46 2.92
 215  0.833  0.500  0.407-  83 1.97  95 1.97  22 2.79  23 2.79  47 2.92
 216  0.833  0.750  0.407-  84 1.97  96 1.97  24 2.79  23 2.79  48 2.92
 217  0.083  0.063  0.453-  73 1.96  97 2.10   1 2.78  13 2.78  25 2.87  37 2.87
 218  0.083  0.313  0.453-  74 1.96  98 2.10   2 2.78  14 2.78  26 2.87  38 2.87
 219  0.083  0.563  0.453-  75 1.96 100 2.10   3 2.78  15 2.78  28 2.87  39 2.87
 220  0.083  0.813  0.453-  76 1.96  99 2.10   4 2.78  16 2.78  27 2.87  41 2.87
 221  0.417  0.063  0.453-  77 1.96 103 2.10   5 2.78  17 2.78  31 2.87  40 2.87
 222  0.417  0.313  0.453-  78 1.96 102 2.10   6 2.78  18 2.78  30 2.87  45 2.87
 223  0.417  0.563  0.453-  79 1.96 101 2.10   7 2.78  19 2.78  29 2.87  44 2.87
 224  0.417  0.813  0.453-  80 1.96 111 2.10   8 2.78  20 2.78  32 2.87  42 2.87
 225  0.750  0.063  0.453-  81 1.96 110 2.10   9 2.78  21 2.78  33 2.87  43 2.87
 226  0.750  0.313  0.453-  82 1.96 108 2.10  10 2.78  22 2.78  35 2.87  46 2.87
 227  0.750  0.563  0.453-  83 1.96 109 2.10  11 2.78  23 2.78  34 2.87  47 2.87
 228  0.750  0.813  0.453-  84 1.96 104 2.10  12 2.78  24 2.78  36 2.87  48 2.87
 229  0.250  0.063  0.453-  85 1.96 105 2.10  13 2.78   5 2.78  37 2.87  31 2.87
 230  0.250  0.313  0.453-  86 1.96 107 2.10  14 2.78   6 2.78  38 2.87  30 2.87
 231  0.250  0.563  0.453-  87 1.96 106 2.10  15 2.78   7 2.78  39 2.87  29 2.87
 232  0.250  0.813  0.453-  88 1.96 112 2.10  16 2.78   8 2.78  41 2.87  32 2.87
 233  0.583  0.063  0.453-  89 1.96 113 2.10  17 2.78   9 2.78  40 2.87  33 2.87
 234  0.583  0.313  0.453-  90 1.96 115 2.10  18 2.78  10 2.78  45 2.87  35 2.87
 235  0.583  0.563  0.453-  91 1.96 114 2.10  19 2.78  11 2.78  44 2.87  34 2.87
 236  0.583  0.813  0.453-  92 1.96 118 2.10  20 2.78  12 2.78  42 2.87  36 2.87
 237  0.917  0.063  0.453-  93 1.96 117 2.10   1 2.78  21 2.78  25 2.87  43 2.87
 238  0.917  0.313  0.453-  94 1.96 116 2.10   2 2.78  22 2.78  26 2.87  46 2.87
 239  0.917  0.563  0.453-  95 1.96 119 2.10   3 2.78  23 2.78  28 2.87  47 2.87
 240  0.917  0.813  0.453-  96 1.96 120 2.10   4 2.78  24 2.78  27 2.87  48 2.87
 241  0.083  0.187  0.453-  74 1.96  97 2.10   1 2.78  13 2.78  26 2.87  38 2.87
 242  0.083  0.437  0.453-  75 1.96  98 2.10   2 2.78  14 2.78  28 2.87  39 2.87
 243  0.083  0.687  0.453-  76 1.96 100 2.10   3 2.78  15 2.78  27 2.87  41 2.87
 244  0.083  0.937  0.453-  73 1.96  99 2.10   4 2.78  16 2.78  25 2.87  37 2.87
 245  0.417  0.187  0.453-  78 1.96 103 2.10   5 2.78  17 2.78  30 2.87  45 2.87
 246  0.417  0.437  0.453-  79 1.96 102 2.10   6 2.78  18 2.78  29 2.87  44 2.87
 247  0.417  0.687  0.453-  80 1.96 101 2.10   7 2.78  19 2.78  32 2.87  42 2.87
 248  0.417  0.937  0.453-  77 1.96 111 2.10   8 2.78  20 2.78  31 2.87  40 2.87
 249  0.750  0.187  0.453-  82 1.96 110 2.10   9 2.78  21 2.78  35 2.87  46 2.87
 250  0.750  0.437  0.453-  83 1.96 108 2.10  10 2.78  22 2.78  34 2.87  47 2.87
 251  0.750  0.687  0.453-  84 1.96 109 2.10  11 2.78  23 2.78  36 2.87  48 2.87
 252  0.750  0.937  0.453-  81 1.96 104 2.10  12 2.78  24 2.78  33 2.87  43 2.87
 253  0.250  0.187  0.453-  86 1.96 105 2.10  13 2.78   5 2.78  38 2.87  30 2.87
 254  0.250  0.437  0.453-  87 1.96 107 2.10  14 2.78   6 2.78  39 2.87  29 2.87
 255  0.250  0.687  0.453-  88 1.96 106 2.10  15 2.78   7 2.78  41 2.87  32 2.87
 256  0.250  0.937  0.453-  85 1.96 112 2.10  16 2.78   8 2.78  37 2.87  31 2.87
 257  0.583  0.187  0.453-  90 1.96 113 2.10  17 2.78   9 2.78  45 2.87  35 2.87
 258  0.583  0.437  0.453-  91 1.96 115 2.10  18 2.78  10 2.78  44 2.87  34 2.87
 259  0.583  0.687  0.453-  92 1.96 114 2.10  19 2.78  11 2.78  42 2.87  36 2.87
 260  0.583  0.937  0.453-  89 1.96 118 2.10  20 2.78  12 2.78  40 2.87  33 2.87
 261  0.917  0.187  0.453-  94 1.96 117 2.10   1 2.78  21 2.78  26 2.87  46 2.87
 262  0.917  0.437  0.453-  95 1.96 116 2.10   2 2.78  22 2.78  28 2.87  47 2.87
 263  0.917  0.687  0.453-  96 1.96 119 2.10   3 2.78  23 2.78  27 2.87  48 2.87
 264  0.917  0.937  0.453-  93 1.96 120 2.10   4 2.78  24 2.78  25 2.87  43 2.87
 265  0.000  0.125  0.498- 117 1.99  97 1.99   1 2.72  25 2.80  26 2.80
 266  0.000  0.375  0.498- 116 1.99  98 1.99   2 2.72  26 2.80  28 2.80
 267  0.000  0.625  0.498- 119 1.99 100 1.99   3 2.72  28 2.80  27 2.80
 268  0.333  0.125  0.498- 103 1.99 105 1.99   5 2.72  31 2.80  30 2.80
 269  0.000  0.875  0.498- 120 1.99  99 1.99   4 2.72  27 2.80  25 2.80
 270  0.333  0.875  0.498- 111 1.99 112 1.99   8 2.72  32 2.80  31 2.80
 271  0.667  0.125  0.498- 110 1.99 113 1.99   9 2.72  33 2.80  35 2.80
 272  0.333  0.625  0.498- 101 1.99 106 1.99   7 2.72  29 2.80  32 2.80
 273  0.333  0.375  0.498- 102 1.99 107 1.99   6 2.72  29 2.80  30 2.80
 274  0.667  0.375  0.498- 108 1.99 115 1.99  10 2.72  34 2.80  35 2.80
 275  0.667  0.625  0.498- 109 1.99 114 1.99  11 2.72  34 2.80  36 2.80
 276  0.167  0.125  0.498- 105 1.99  97 1.99  13 2.72  37 2.80  38 2.80
 277  0.667  0.875  0.498- 104 1.99 118 1.99  12 2.72  36 2.80  33 2.80
 278  0.167  0.875  0.498- 112 1.99  99 1.99  16 2.72  41 2.80  37 2.80
 279  0.167  0.625  0.498- 106 1.99 100 1.99  15 2.72  39 2.80  41 2.80
 280  0.167  0.375  0.498- 107 1.99  98 1.99  14 2.72  38 2.80  39 2.80
 281  0.833  0.125  0.498- 110 1.99 117 1.99  21 2.72  43 2.80  46 2.80
 282  0.833  0.375  0.498- 108 1.99 116 1.99  22 2.72  46 2.80  47 2.80
 283  0.833  0.875  0.498- 104 1.99 120 1.99  24 2.72  48 2.80  43 2.80
 284  0.833  0.625  0.498- 109 1.99 119 1.99  23 2.72  47 2.80  48 2.80
 285  0.500  0.625  0.498- 114 1.99 101 1.99  19 2.72  44 2.80  42 2.80
 286  0.500  0.875  0.498- 118 1.99 111 1.99  20 2.72  42 2.80  40 2.80
 287  0.500  0.375  0.498- 115 1.99 102 1.99  18 2.72  44 2.80  45 2.80
 288  0.500  0.125  0.498- 113 1.99 103 1.99  17 2.72  40 2.80  45 2.80
 289  0.083  0.188  0.545-  97 1.85 124 2.18  26 2.70  38 2.70  49 3.32  55 3.32
 290  0.083  0.438  0.545-  98 1.85 123 2.18  28 2.70  39 2.70  51 3.32  54 3.32
 291  0.083  0.688  0.545- 100 1.85 122 2.18  27 2.70  41 2.70  50 3.32  59 3.32
 292  0.417  0.188  0.545- 103 1.85 131 2.18  30 2.70  45 2.70  65 3.32  56 3.32
 293  0.083  0.938  0.545-  99 1.85 121 2.18  25 2.70  37 2.70  58 3.32  66 3.32
 294  0.417  0.938  0.545- 111 1.85 132 2.18  31 2.70  40 2.70  60 3.32  71 3.32
 295  0.750  0.188  0.545- 110 1.85 126 2.18  35 2.70  46 2.70  61 3.32  69 3.32
 296  0.417  0.688  0.545- 101 1.85 130 2.18  32 2.70  42 2.70  64 3.32  72 3.32
 297  0.417  0.438  0.545- 102 1.85 129 2.18  29 2.70  44 2.70  63 3.32  57 3.32
 298  0.750  0.438  0.545- 108 1.85 128 2.18  34 2.70  47 2.70  62 3.32  70 3.32
 299  0.750  0.688  0.545- 109 1.85 127 2.18  36 2.70  48 2.70  52 3.32  67 3.32
 300  0.750  0.938  0.545- 104 1.85 125 2.18  33 2.70  43 2.70  53 3.32  68 3.32
 301  0.250  0.188  0.545- 105 1.85 133 2.18  38 2.70  30 2.70  55 3.32  65 3.32
 302  0.250  0.438  0.545- 107 1.85 138 2.18  39 2.70  29 2.70  54 3.32  63 3.32
 303  0.250  0.688  0.545- 106 1.85 137 2.18  41 2.70  32 2.70  59 3.32  64 3.32
 304  0.250  0.938  0.545- 112 1.85 134 2.18  37 2.70  31 2.70  58 3.32  60 3.32
 305  0.583  0.188  0.545- 113 1.85 136 2.18  45 2.70  35 2.70  56 3.32  61 3.32
 306  0.583  0.688  0.545- 114 1.85 140 2.18  42 2.70  36 2.70  72 3.32  52 3.32
 307  0.583  0.438  0.545- 115 1.85 139 2.18  44 2.70  34 2.70  57 3.32  62 3.32
 308  0.917  0.438  0.545- 116 1.85 144 2.18  28 2.70  47 2.70  51 3.32  70 3.32
 309  0.917  0.188  0.545- 117 1.85 141 2.18  26 2.70  46 2.70  49 3.32  69 3.32
 310  0.583  0.938  0.545- 118 1.85 135 2.18  40 2.70  33 2.70  71 3.32  53 3.32
 311  0.917  0.688  0.545- 119 1.85 143 2.18  27 2.70  48 2.70  50 3.32  67 3.32
 312  0.917  0.938  0.545- 120 1.85 142 2.18  25 2.70  43 2.70  66 3.32  68 3.32
 313  0.083  0.062  0.545-  97 1.85 121 2.18  25 2.70  37 2.70  49 3.32  55 3.32
 314  0.083  0.312  0.545-  98 1.85 124 2.18  26 2.70  38 2.70  51 3.32  54 3.32
 315  0.083  0.562  0.545- 100 1.85 123 2.18  28 2.70  39 2.70  50 3.32  59 3.32
 316  0.083  0.812  0.545-  99 1.85 122 2.18  27 2.70  41 2.70  58 3.32  66 3.32
 317  0.417  0.062  0.545- 103 1.85 132 2.18  31 2.70  40 2.70  65 3.32  56 3.32
 318  0.417  0.562  0.545- 101 1.85 129 2.18  29 2.70  44 2.70  64 3.32  72 3.32
 319  0.417  0.312  0.545- 102 1.85 131 2.18  30 2.70  45 2.70  63 3.32  57 3.32
 320  0.750  0.312  0.545- 108 1.85 126 2.18  35 2.70  46 2.70  62 3.32  70 3.32
 321  0.750  0.062  0.545- 110 1.85 125 2.18  33 2.70  43 2.70  61 3.32  69 3.32
 322  0.417  0.812  0.545- 111 1.85 130 2.18  32 2.70  42 2.70  60 3.32  71 3.32
 323  0.750  0.562  0.545- 109 1.85 128 2.18  34 2.70  47 2.70  52 3.32  67 3.32
 324  0.750  0.812  0.545- 104 1.85 127 2.18  36 2.70  48 2.70  53 3.32  68 3.32
 325  0.250  0.062  0.545- 105 1.85 134 2.18  37 2.70  31 2.70  55 3.32  65 3.32
 326  0.250  0.312  0.545- 107 1.85 133 2.18  38 2.70  30 2.70  54 3.32  63 3.32
 327  0.250  0.562  0.545- 106 1.85 138 2.18  39 2.70  29 2.70  59 3.32  64 3.32
 328  0.250  0.812  0.545- 112 1.85 137 2.18  41 2.70  32 2.70  58 3.32  60 3.32
 329  0.583  0.062  0.545- 113 1.85 135 2.18  40 2.70  33 2.70  56 3.32  61 3.32
 330  0.583  0.312  0.545- 115 1.85 136 2.18  45 2.70  35 2.70  57 3.32  62 3.32
 331  0.583  0.812  0.545- 118 1.85 140 2.18  42 2.70  36 2.70  71 3.32  53 3.32
 332  0.583  0.562  0.545- 114 1.85 139 2.18  44 2.70  34 2.70  72 3.32  52 3.32
 333  0.917  0.562  0.545- 119 1.85 144 2.18  28 2.70  47 2.70  50 3.32  67 3.32
 334  0.917  0.812  0.545- 120 1.85 143 2.18  27 2.70  48 2.70  66 3.32  68 3.32
 335  0.917  0.312  0.545- 116 1.85 141 2.18  26 2.70  46 2.70  51 3.32  70 3.32
 336  0.917  0.062  0.545- 117 1.85 142 2.18  25 2.70  43 2.70  49 3.32  69 3.32
 337  0.000  0.500  0.591- 144 2.00 123 2.00  28 2.59  50 2.93  51 2.93
 338  0.000  0.750  0.591- 143 2.00 122 2.00  27 2.59  66 2.93  50 2.93
 339  0.333  0.250  0.591- 131 2.00 133 2.00  30 2.59  63 2.93  65 2.93
 340  0.333  0.000  0.591- 132 2.00 134 2.00  31 2.59  65 2.93  60 2.93
 341  0.000  0.000  0.591- 142 2.00 121 2.00  25 2.59  49 2.93  66 2.93
 342  0.000  0.250  0.591- 141 2.00 124 2.00  26 2.59  51 2.93  49 2.93
 343  0.333  0.500  0.591- 129 2.00 138 2.00  29 2.59  63 2.93  64 2.93
 344  0.333  0.750  0.591- 130 2.00 137 2.00  32 2.59  60 2.93  64 2.93
 345  0.667  0.250  0.591- 126 2.00 136 2.00  35 2.59  62 2.93  61 2.93
 346  0.667  0.000  0.591- 125 2.00 135 2.00  33 2.59  61 2.93  53 2.93
 347  0.667  0.750  0.591- 127 2.00 140 2.00  36 2.59  53 2.93  52 2.93
 348  0.667  0.500  0.591- 128 2.00 139 2.00  34 2.59  52 2.93  62 2.93
 349  0.167  0.000  0.591- 134 2.00 121 2.00  37 2.59  55 2.93  58 2.93
 350  0.167  0.250  0.591- 133 2.00 124 2.00  38 2.59  54 2.93  55 2.93
 351  0.167  0.750  0.591- 137 2.00 122 2.00  41 2.59  58 2.93  59 2.93
 352  0.167  0.500  0.591- 138 2.00 123 2.00  39 2.59  54 2.93  59 2.93
 353  0.500  0.500  0.591- 139 2.00 129 2.00  44 2.59  57 2.93  72 2.93
 354  0.500  0.250  0.591- 136 2.00 131 2.00  45 2.59  57 2.93  56 2.93
 355  0.500  0.000  0.591- 135 2.00 132 2.00  40 2.59  56 2.93  71 2.93
 356  0.833  0.750  0.591- 127 2.00 143 2.00  48 2.59  68 2.93  67 2.93
 357  0.833  0.250  0.591- 126 2.00 141 2.00  46 2.59  70 2.93  69 2.93
 358  0.833  0.500  0.591- 128 2.00 144 2.00  47 2.59  67 2.93  70 2.93
 359  0.833  0.000  0.591- 125 2.00 142 2.00  43 2.59  69 2.93  68 2.93
 360  0.500  0.750  0.591- 140 2.00 130 2.00  42 2.59  71 2.93  72 2.93
 361  0.417  0.062  0.640- 132 1.80  65 2.49  56 2.49
 362  0.417  0.312  0.640- 131 1.80  63 2.49  57 2.49
 363  0.417  0.812  0.640- 130 1.80  60 2.49  71 2.49
 364  0.417  0.562  0.640- 129 1.80  64 2.49  72 2.49
 365  0.750  0.562  0.640- 128 1.80  52 2.49  67 2.49
 366  0.750  0.812  0.640- 127 1.80  53 2.49  68 2.49
 367  0.750  0.312  0.640- 126 1.80  62 2.49  70 2.49
 368  0.750  0.062  0.640- 125 1.80  61 2.49  69 2.49
 369  0.083  0.312  0.640- 124 1.80  54 2.49  51 2.49
 370  0.083  0.562  0.640- 123 1.80  59 2.49  50 2.49
 371  0.083  0.812  0.640- 122 1.80  66 2.49  58 2.49
 372  0.083  0.062  0.640- 121 1.80  55 2.49  49 2.49
 373  0.083  0.438  0.640- 123 1.80  54 2.49  51 2.49
 374  0.083  0.188  0.640- 124 1.80  55 2.49  49 2.49
 375  0.417  0.188  0.640- 131 1.80  65 2.49  56 2.49
 376  0.417  0.438  0.640- 129 1.80  63 2.49  57 2.49
 377  0.083  0.938  0.640- 121 1.80  66 2.49  58 2.49
 378  0.083  0.688  0.640- 122 1.80  59 2.49  50 2.49
 379  0.917  0.438  0.640- 144 1.80  51 2.49  70 2.49
 380  0.917  0.688  0.640- 143 1.80  50 2.49  67 2.49
 381  0.917  0.938  0.640- 142 1.80  66 2.49  68 2.49
 382  0.250  0.438  0.640- 138 1.80  54 2.49  63 2.49
 383  0.250  0.688  0.640- 137 1.80  59 2.49  64 2.49
 384  0.583  0.188  0.640- 136 1.80  56 2.49  61 2.49
 385  0.250  0.938  0.640- 134 1.80  58 2.49  60 2.49
 386  0.583  0.938  0.640- 135 1.80  71 2.49  53 2.49
 387  0.917  0.188  0.640- 141 1.80  49 2.49  69 2.49
 388  0.583  0.688  0.640- 140 1.80  72 2.49  52 2.49
 389  0.583  0.438  0.640- 139 1.80  57 2.49  62 2.49
 390  0.750  0.688  0.640- 127 1.80  52 2.49  67 2.49
 391  0.750  0.938  0.640- 125 1.80  53 2.49  68 2.49
 392  0.250  0.188  0.640- 133 1.80  55 2.49  65 2.49
 393  0.750  0.188  0.640- 126 1.80  61 2.49  69 2.49
 394  0.750  0.438  0.640- 128 1.80  62 2.49  70 2.49
 395  0.417  0.938  0.640- 132 1.80  60 2.49  71 2.49
 396  0.417  0.688  0.640- 130 1.80  64 2.49  72 2.49
 397  0.583  0.812  0.640- 140 1.80  71 2.49  53 2.49
 398  0.917  0.062  0.640- 142 1.80  49 2.49  69 2.49
 399  0.917  0.562  0.640- 144 1.80  50 2.49  67 2.49
 400  0.917  0.312  0.640- 141 1.80  51 2.49  70 2.49
 401  0.917  0.812  0.640- 143 1.80  66 2.49  68 2.49
 402  0.583  0.062  0.640- 135 1.80  56 2.49  61 2.49
 403  0.583  0.312  0.640- 136 1.80  57 2.49  62 2.49
 404  0.583  0.562  0.640- 139 1.80  72 2.49  52 2.49
 405  0.250  0.562  0.640- 138 1.80  59 2.49  64 2.49
 406  0.250  0.812  0.640- 137 1.80  58 2.49  60 2.49
 407  0.250  0.312  0.640- 133 1.80  54 2.49  63 2.49
 408  0.250  0.062  0.640- 134 1.80  55 2.49  65 2.49
 
  LATTYP: Found a simple orthorhombic cell.
 ALAT       =    22.3170261383
 B/A-ratio  =     1.0606601451
 C/A-ratio  =     1.3442651281
  
  Lattice vectors:
  
 A1 = (   0.0000000000, -22.3170261383,   0.0000000000)
 A2 = (  23.6707801819,   0.0000000000,   0.0000000000)
 A3 = (   0.0000000000,   0.0000000000,  30.0000000000)


Analysis of symmetry for initial positions (statically):
=====================================================================
 Subroutine PRICEL returns following result:
 
  LATTYP: Found a simple orthorhombic cell.
 ALAT       =     3.9451301480
 B/A-ratio  =     1.4142135559
 C/A-ratio  =     7.6043118667
  
  Lattice vectors:
  
 A1 = (   3.9451301480,   0.0000000000,   0.0000000000)
 A2 = (   0.0000000000,   5.5792565350,   0.0000000000)
 A3 = (   0.0000000000,   0.0000000000,  30.0000000000)
 
  24 primitive cells build up your supercell.
 

 Routine SETGRP: Setting up the symmetry group for a 
 simple orthorhombic supercell.


 Subroutine GETGRP returns: Found  4 space group operations
 (whereof  4 operations were pure point group operations)
 out of a pool of  8 trial point group operations.


The static configuration has the point symmetry C_2v.


Analysis of symmetry for dynamics (positions and initial velocities):
=====================================================================
 Subroutine PRICEL returns following result:
 
  LATTYP: Found a simple orthorhombic cell.
 ALAT       =     3.9451301480
 B/A-ratio  =     1.4142135559
 C/A-ratio  =     7.6043118667
  
  Lattice vectors:
  
 A1 = (   3.9451301480,   0.0000000000,   0.0000000000)
 A2 = (   0.0000000000,   5.5792565350,   0.0000000000)
 A3 = (   0.0000000000,   0.0000000000,  30.0000000000)
 
  24 primitive cells build up your supercell.
 

 Routine SETGRP: Setting up the symmetry group for a 
 simple orthorhombic supercell.


 Subroutine GETGRP returns: Found  4 space group operations
 (whereof  4 operations were pure point group operations)
 out of a pool of  8 trial point group operations.


The dynamic configuration has the point symmetry C_2v.


Analysis of constrained symmetry for selective dynamics:
=====================================================================
 Subroutine PRICEL returns following result:
 
  LATTYP: Found a simple orthorhombic cell.
 ALAT       =     3.9451301480
 B/A-ratio  =     1.4142135559
 C/A-ratio  =     7.6043118667
  
  Lattice vectors:
  
 A1 = (   3.9451301480,   0.0000000000,   0.0000000000)
 A2 = (   0.0000000000,   5.5792565350,   0.0000000000)
 A3 = (   0.0000000000,   0.0000000000,  30.0000000000)
 
  24 primitive cells build up your supercell.
 

 Routine SETGRP: Setting up the symmetry group for a 
 simple orthorhombic supercell.


 Subroutine GETGRP returns: Found  4 space group operations
 (whereof  4 operations were pure point group operations)
 out of a pool of  8 trial point group operations.


The constrained configuration has the point symmetry C_2v.


 Subroutine INISYM returns: Found  4 space group operations
 (whereof  4 operations are pure point group operations),
 and found    24 'primitive' translations


----------------------------------------------------------------------------------------

                                     Primitive cell                                     

  volume of cell :     660.3268

  direct lattice vectors                    reciprocal lattice vectors
     3.945130148  0.000000000  0.000000000     0.253477062  0.000000000  0.000000000
     0.000000000  5.579256535  0.000000000     0.000000000  0.179235350  0.000000000
     0.000000000  0.000000000 30.000000000     0.000000000  0.000000000  0.033333333

  length of vectors
     3.945130148  5.579256535 30.000000000     0.253477062  0.179235350  0.033333333

  position of ions in fractional coordinates (direct lattice)
     0.000000000  0.500000000  0.407013327
     0.000000000  0.000000000  0.504185493
     0.000000000  0.500000000  0.620601067
     0.499999955  0.000000000  0.407013327
     0.499999955  0.500000000  0.505432441
     0.499999955  0.000000000  0.601523396
     0.499999955  0.750000000  0.360520005
     0.499999955  0.250000000  0.360520005
     0.000000000  0.000000000  0.407013327
     0.499999955  0.250453028  0.452907943
     0.499999955  0.749546972  0.452907943
     0.000000000  0.500000000  0.497526685
     0.499999955  0.752774704  0.545130801
     0.499999955  0.247225296  0.545130801
     0.000000000  0.000000000  0.590574721
     0.499999955  0.249091001  0.639725530
     0.499999955  0.750908999  0.639725530

  ion indices of the primitive-cell ions
   primitive index   ion index
                 1           1
                 2          25
                 3          49
                 4          93
                 5         117
                 6         142
                 7         165
                 8         189
                 9         193
                10         237
                11         261
                12         265
                13         309
                14         336
                15         341
                16         398
                17         387

----------------------------------------------------------------------------------------

 
 
 KPOINTS: KPOINTS created by Atomic Simulation Env

Automatic generation of k-mesh.
 Grid dimensions read from file:
 generate k-points for:    1    1    1

 Generating k-lattice:

  Cartesian coordinates                     Fractional coordinates (reciprocal lattice)
     0.042246178  0.000000000  0.000000000     1.000000000  0.000000000  0.000000000
     0.000000000  0.044808838  0.000000000     0.000000000  1.000000000  0.000000000
     0.000000000  0.000000000  0.033333333     0.000000000  0.000000000  1.000000000

  Length of vectors
     0.042246178  0.044808838  0.033333333

  Shift w.r.t. Gamma in fractional coordinates (k-lattice)
     0.000000000  0.000000000  0.000000000

 
 Subroutine IBZKPT returns following result:
 ===========================================
 
 Found      1 irreducible k-points:
 
 Following reciprocal coordinates:
            Coordinates               Weight
  0.000000  0.000000  0.000000      1.000000
 
 Following cartesian coordinates:
            Coordinates               Weight
  0.000000  0.000000  0.000000      1.000000
 


--------------------------------------------------------------------------------------------------------




 Dimension of arrays:
   k-points           NKPTS =      1   k-points in BZ     NKDIM =      1   number of bands    NBANDS=   1904
   number of dos      NEDOS =    301   number of ions     NIONS =    408
   non local maximal  LDIM  =      6   non local SUM 2l+1 LMDIM =     18
   total plane-waves  NPLWV = ******
   max r-space proj   IRMAX =   3047   max aug-charges    IRDMAX=  11163
   dimension x,y,z NGX =   140 NGY =  126 NGZ =  168
   dimension x,y,z NGXF=   280 NGYF=  252 NGZF=  336
   support grid    NGXF=   280 NGYF=  252 NGZF=  336
   ions per type =              72  72 264
   NGX,Y,Z   is equivalent  to a cutoff of   9.83,  9.39,  9.31 a.u.
   NGXF,Y,Z  is equivalent  to a cutoff of  19.67, 18.77, 18.62 a.u.

 SYSTEM =  unknown system                          
 POSCAR =  Sr1 Ti1 O3                              

 Startparameter for this run:
   NWRITE =      2    write-flag & timer
   PREC   = normal    normal or accurate (medium, high low for compatibility)
   ISTART =      0    job   : 0-new  1-cont  2-samecut
   ICHARG =      2    charge: 1-file 2-atom 10-const
   ISPIN  =      1    spin polarized calculation?
   LNONCOLLINEAR =      F non collinear calculations
   LSORBIT =      F    spin-orbit coupling
   INIWAV =      1    electr: 0-lowe 1-rand  2-diag
   LASPH  =      F    aspherical Exc in radial PAW
 Electronic Relaxation 1
   ENCUT  =  500.0 eV  36.75 Ry    6.06 a.u.  43.16 40.69 54.70*2*pi/ulx,y,z
   ENINI  =  500.0     initial cutoff
   ENAUG  =  605.4 eV  augmentation charge cutoff
   NELM   =   2000;   NELMIN=  2; NELMDL=  0     # of ELM steps 
   EDIFF  = 0.1E-05   stopping-criterion for ELM
   LREAL  =      T    real-space projection
   NLSPLINE    = F    spline interpolate recip. space projectors
   LCOMPAT=      F    compatible to vasp.4.4
   GGA_COMPAT  = T    GGA compatible to vasp.4.4-vasp.4.6
   LMAXPAW     = -100 max onsite density
   LMAXMIX     =    2 max onsite mixed and CHGCAR
   VOSKOWN=      0    Vosko Wilk Nusair interpolation
   ROPT   =   -0.00050  -0.00050  -0.00050
 Ionic relaxation
   EDIFFG = -.5E-01   stopping-criterion for IOM
   NSW    =    500    number of steps for IOM
   NBLOCK =      1;   KBLOCK =    500    inner block; outer block 
   IBRION =      2    ionic relax: 0-MD 1-quasi-New 2-CG
   NFREE  =      1    steps in history (QN), initial steepest desc. (CG)
   ISIF   =      2    stress and relaxation
   IWAVPR =     11    prediction:  0-non 1-charg 2-wave 3-comb
   ISYM   =      2    0-nonsym 1-usesym 2-fastsym
   LCORR  =      T    Harris-Foulkes like correction to forces

   POTIM  = 0.5000    time-step for ionic-motion
   TEIN   =    0.0    initial temperature
   TEBEG  =    0.0;   TEEND  =   0.0 temperature during run
   SMASS  =  -3.00    Nose mass-parameter (am)
   estimated Nose-frequenzy (Omega)   =  0.10E-29 period in steps = 0.13E+47 mass=  -0.128E-25a.u.
   SCALEE = 1.0000    scale energy and forces
   NPACO  =    256;   APACO  = 10.0  distance and # of slots for P.C.
   PSTRESS=    0.0 pullay stress

  Mass of Ions in am
   POMASS =  87.62 47.88 16.00
  Ionic Valenz
   ZVAL   =  10.00 12.00  6.00
  Atomic Wigner-Seitz radii
   RWIGS  =  -1.00 -1.00 -1.00
  virtual crystal weights 
   VCA    =   1.00  1.00  1.00
   NELECT =    3168.0000    total number of electrons
   NUPDOWN=      -1.0000    fix difference up-down

 DOS related values:
   EMIN   =  10.00;   EMAX   =-10.00  energy-range for DOS
   EFERMI =   0.00
   ISMEAR =     0;   SIGMA  =   0.01  broadening in eV -4-tet -1-fermi 0-gaus

 Electronic relaxation 2 (details)
   IALGO  =     58    algorithm
   LDIAG  =      T    sub-space diagonalisation (order eigenvalues)
   LSUBROT=      F    optimize rotation matrix (better conditioning)
   TURBO    =      0    0=normal 1=particle mesh
   IRESTART =      0    0=no restart 2=restart with 2 vectors
   NREBOOT  =      0    no. of reboots
   NMIN     =      0    reboot dimension
   EREF     =   0.00    reference energy to select bands
   IMIX   =      4    mixing-type and parameters
     AMIX     =   0.40;   BMIX     =  1.00
     AMIX_MAG =   1.60;   BMIX_MAG =  1.00
     AMIN     =   0.10
     WC   =   100.;   INIMIX=   1;  MIXPRE=   1;  MAXMIX= -45

 Intra band minimization:
   WEIMIN = 0.0010     energy-eigenvalue tresh-hold
   EBREAK =  0.13E-09  absolut break condition
   DEPER  =   0.30     relativ break condition  

   TIME   =   0.40     timestep for ELM

  volume/ion in A,a.u.               =      38.84       262.12
  Fermi-wavevector in a.u.,A,eV,Ry     =   0.957223  1.808889 12.466693  0.916276
  Thomas-Fermi vector in A             =   2.086222
 
 Write flags
   LWAVE        =      F    write WAVECAR
   LDOWNSAMPLE  =      F    k-point downsampling of WAVECAR
   LCHARG       =      F    write CHGCAR
   LVTOT        =      F    write LOCPOT, total local potential
   LVHAR        =      F    write LOCPOT, Hartree potential only
   LELF         =      F    write electronic localiz. function (ELF)
   LORBIT       =      0    0 simple, 1 ext, 2 COOP (PROOUT), +10 PAW based schemes


 Dipole corrections
   LMONO  =      F    monopole corrections only (constant potential shift)
   LDIPOL =      T    correct potential (dipole corrections)
   IDIPOL =      3    1-x, 2-y, 3-z, 4-all directions 
   EPSILON=  1.0000000 bulk dielectric constant

 Exchange correlation treatment:
   GGA     =    BF    GGA type
   LEXCH   =    17    internal setting for exchange type
   LIBXC   =     F    Libxc                    
   VOSKOWN =     0    Vosko Wilk Nusair interpolation
   LHFCALC =     F    Hartree Fock is set to
   LHFONE  =     F    Hartree Fock one center treatment
   AEXX    =    0.0000 exact exchange contribution

 vdW DFT:
   LUSE_VDW   =     T    switch on vdW DFT
   Zab_VDW    =******    correlation parameter
   PARAM1     =0.1234
   PARAM2     =1.0000
   PARAM3     =0.0000
   -- rVV10 --
   BPARAM     = 6.3000
   CPARAM     = 0.0093

 Linear response parameters
   LEPSILON=     F    determine dielectric tensor
   LRPA    =     F    only Hartree local field effects (RPA)
   LNABLA  =     F    use nabla operator in PAW spheres
   LVEL    =     F    velocity operator in full k-point grid
   CSHIFT  =0.1000    complex shift for real part using Kramers Kronig
   OMEGAMAX=  -1.0    maximum frequency
   DEG_THRESHOLD= 0.2000000E-02 threshold for treating states as degnerate
   RTIME   =   -0.100 relaxation time in fs
  (WPLASMAI=    0.000 imaginary part of plasma frequency in eV, 0.658/RTIME)
   DFIELD  = 0.0000000 0.0000000 0.0000000 field for delta impulse in time
 
  Optional k-point grid parameters
   LKPOINTS_OPT  =     F    use optional k-point grid
   KPOINTS_OPT_MODE=     1    mode for optional k-point grid
 
 Orbital magnetization related:
   ORBITALMAG=     F  switch on orbital magnetization
   LCHIMAG   =     F  perturbation theory with respect to B field
   DQ        =  0.001000  dq finite difference perturbation B field
   LLRAUG    =     F  two centre corrections for induced B field



--------------------------------------------------------------------------------------------------------


 conjugate gradient relaxation of ions
   using selective dynamics as specified on POSCAR
 charge density and potential will be updated during run
[...]
  352                map_gather                            0.102842                  778   7
  353                m_alltoallv_z                         4.476252                  778   7
  354                map_scatter                           0.467563                  778   7
  355              map_backward                          5.220962                   1528   6
  356                map_gather                            0.376342                  764   7
  357                m_alltoallv_z                         4.619117                  764   7
  358                map_scatter                           0.210803                  764   7
  359        ggaall_grid                          10.954638                          135   3
  360        m_sumb_d                              0.157786                          696   3
  361        fewald                                0.009917                           14   3
  362          rsp                                   0.009152                         14   4
  363          rcp                                   0.000647                         14   4
  364        pothar                                0.010141                            7   3
  365          m_sumb_d                              0.006388                          7   4
  366        m_bcast_d                             0.023783                            7   3
  367      potlok_metagga                        0.000009                              7   2
  368      set_dd_magatom                        0.000003                              4   2
  369      set_dd_paw                            0.085979                              7   2
  370        set_rsgf_all                          0.000015                            7   3
  371        m_sumb_d                              0.084299                           49   3
  372      m_bcast_d                             0.001491                              8   2
  373      wavpre_noio                           0.724734                              3   2
  374        stufak                                0.699284                            3   3
  375      eddiag                               40.888027                              3   2
  376        overl                                 0.002805                            3   3
  377        redis_proj                            0.942723                            9   3
  378          m_alltoall_d                          0.939783                       1071   4
  379        fftwav_mpi                            1.412643                          357   3
  380          fft3d_mpi                             1.265250                        357   4
  381            fftbrc_mpi                            1.073835                      357   5
  382              fftbas_plan_mpi                       1.072756                    357   6
  383                dfftw_execute                         0.545840                 1071   7
  384                map_forward                           0.313081                  714   7
  385                  map_gather                            0.033284                357   8
  386                  m_alltoallv_z                         0.112317                357   8
  387                  map_scatter                           0.066394                357   8
  388        hamilt_local                          1.272969                          357   3
  389          vhamil                                0.172457                        357   4
  390          kinhamil                              1.097623                        357   4
  391            fftext_mpi                            1.084553                      357   5
  392              fft3d_mpi                             1.059495                    357   6
  393                fftbrc_mpi                            0.891150                  357   7
  394                  fftbas_plan_mpi                       0.889967                357   8
  395                    dfftw_execute                         0.463932             1071   9
  396                    map_backward                          0.215369              714   9
  397                      map_gather                            0.056695            357  10
  398                      m_alltoallv_z                         0.102837            357  10
  399                      map_scatter                           0.050162            357  10
  400        redis_pw                              0.668270                          363   3
  401          m_alltoall_d                          0.642726                       1071   4
  402        orth1                                 0.621310                          180   3
  403        m_sumb_d                              0.463680                            3   3
  404        shift_bands_between_low_high          0.000004                            3   3
  405        lincom                                0.661640                            3   3
  406      set_charge                           12.846696                              3   2
  407        soft_charge                           1.382388                            3   3
  408          fftwav_mpi                            1.174414                        300   4
  409            fft3d_mpi                             1.057321                      300   5
  410              fftbrc_mpi                            0.901101                    300   6
  411                fftbas_plan_mpi                       0.900281                  300   7
  412                  dfftw_execute                         0.454830                900   8
  413                  map_forward                           0.253478                600   8
  414                    map_gather                            0.026486              300   9
  415                    m_alltoallv_z                         0.091262              300   9
  416                    map_scatter                           0.055357              300   9
  417          pw_charge                             0.133679                        300   4
  418          m_sumb_d                              0.053123                          3   4
  419          fft_gq                                0.015296                          3   4
  420            fft3d_mpi                             0.014857                        3   5
  421              fftbrc_mpi                            0.014040                      3   6
  422                fftbas_plan_mpi                       0.014032                    3   7
  423                  dfftw_execute                         0.002598                  9   8
  424                  map_backward                          0.009512                  6   8
  425                    map_gather                            0.001128                6   9
  426                    m_alltoallv_z                         0.007839                6   9
  427                    map_scatter                           0.000458                6   9
  428        m_sumb_d                              0.392323                            3   3
  429        depsum                                0.028956                            3   3
  430          m_sumb_d                              0.026602                          3   4
  431        augmentation_charge                   0.237559                            3   3
  432          m_sumb_d                              0.006575                          3   4
  433          fft3d_mpi                             0.024289                          3   4
  434            fftbrc_mpi                            0.023674                        3   5
  435              fftbas_plan_mpi                       0.023665                      3   6
  436                dfftw_execute                         0.003633                    9   7
  437                map_backward                          0.017648                    6   7
  438                  map_gather                            0.001244                  3   8
  439                  m_alltoallv_z                         0.015548                  3   8
  440                  map_scatter                           0.000807                  3   8
 
 Flat profile
 ============
 
             routine name                   CPU           calls
 ---------------------------------------------------------------
 edwav                                6630.769961         929
 set_charge                           3385.520265         933
 potlok                               1685.415961         937
 dfftw_execute                         646.675959     1351254
 m_alltoall_d                          641.100290     1877022
 m_sumb_d                              574.100945      790540
 lincom                                522.375618        2803
 m_alltoallv_z                         472.992899      452288
 orth1                                 329.058543      116663
 fftbas_plan_mpi                       278.621475      450418
 fft3d_mpi                             210.076430      450418
 choleski                              206.685482         933
 ggaall_grid                           196.690812        1069
 fftwav_mpi                            110.165196      268470
 eccp                                  106.963240      218484
 map_scatter                            97.617028      452288
 map_forward                            77.419562      607590
 eddiag                                 75.403108         485
 total_time                             73.940709           1
 racc0                                  72.158673       55867
 rpro1                                  67.441779       55272
 map_gather                             65.466302      452288
 augmentation_charge                    62.532418         933
 eddav                                  58.962179           5
 pw_charge                              41.872281       93428
 vhamil                                 26.674119       56700
 setdij_                                26.228821        1042
 w1_dscal                               18.156710       53669
 redis_pw                               12.345728      223849
 orthch                                 11.905955         933
 m_bcast_z                               9.714763        2023
 fftext_mpi                              8.370026      110369
 force_and_stress                        7.269186           4
 ggemm                                   5.854409        2793
 redis_proj                              5.675301      178763
 m_bcast_d                               4.408810        7547
 rpromu                                  3.704190        1560
 lapack                                  3.406364        2198
 overl                                   2.897415       59312
 map_backward                            2.589784      293246
 elmin_all                               2.182585           4
 rpromu_gemm                             1.972781      318240
 soft_charge                             1.950566         933
 kinhamil                                1.908366       56700
 rspher_all                              1.618077          53
 densta                                  1.543157         944
 forloc                                  1.466539           4
 forhar                                  1.449271           4
 fftbrc_mpi                              1.371696      450418
 rsp                                     1.278440        1878
 stufak                                  0.931458           4
 depsum                                  0.720319         933
 set_dd_paw                              0.502670         941
 pothar                                  0.486753         937
 hamilt_local                            0.448297       54502
 inisym                                  0.317846           1
 w1_copy                                 0.254215        6594
 fft_gq                                  0.158671         933
 rpro_isp                                0.104484          52
 rcp                                     0.094040        1878
 apply_precond                           0.084841        1603
 overl1                                  0.068872        2198
 strnlr                                  0.060732           4
 setup_precond                           0.050710         595
 fewald                                  0.039830        1878
 posmap                                  0.037644           2
 hamiltmu                                0.033976        2198
 raccmu_                                 0.026215        2198
 newband                                 0.025698        2203
 wavpre_noio                             0.025450           3
 strehar                                 0.018139           4
 strkin                                  0.017942           4
 fornlr                                  0.016523           4
 strelo                                  0.015558           4
 w1_projall                              0.008982        1603
 redis_pw_all                            0.006518         929
 redis_pw_over_bands                     0.004005         936
 truncate_high_frequency_w1              0.002419        2793
 set_rsgf_all                            0.002168         941
 potlok_metagga                          0.001211         937
 fordep                                  0.000818           4
 brgrid                                  0.000643           1
 phaser                                  0.000403         508
 crpa_reader                             0.000232           1
 rotate_active_occupied_orbital          0.000074           4
 proall                                  0.000069           4
 vectorpot                               0.000032           1
 set_dd_magatom                          0.000027           8
 shift_bands_between_low_high            0.000011           7
 ---------------------------------------------------------------
  summed up times    16860.5386669636     
 
 Accumulative profile
 ====================
 
             routine name                   CPU           calls
 ---------------------------------------------------------------
 total_time                          16860.538667           1
 elmin_all                           16629.017977           4
 edwav                                9726.005273         929
 set_charge                           4023.237700         933
 potlok                               2448.870089         937
 fft3d_mpi                            1852.831135      450418
 fftbrc_mpi                           1642.754705      450418
 fftbas_plan_mpi                      1641.383009      450418
 fftwav_mpi                           1059.716720      268470
 orthch                                739.592078         933
 dfftw_execute                         646.675959     1351254
 m_alltoall_d                          641.100290     1877022
 m_sumb_d                              574.100945      790540
 lincom                                522.375618        2803
 m_alltoallv_z                         472.992899      452288
 map_forward                           446.587299      607590
 soft_charge                           429.392427         933
 eddiag                                344.401308         485
 fftext_mpi                            339.122548      110369
 redis_pw                              335.288671      223849
 orth1                                 329.058543      116663
 redis_proj                            323.832647      178763
 map_backward                          269.498276      293246
 choleski                              206.685482         933
 ggaall_grid                           196.690812        1069
 hamilt_local                          195.219880       54502
 kinhamil                              176.081860       56700
 eddav                                 125.512228           5
 eccp                                  120.036563      218484
 map_scatter                            97.617028      452288
 racc0                                  90.879909       55867
 rpro1                                  77.439631       55272
 augmentation_charge                    76.768201         933
 map_gather                             65.466302      452288
 redis_pw_over_bands                    56.050383         936
 redis_pw_all                           56.046377         929
 force_and_stress                       47.086753           4
 pw_charge                              41.872281       93428
 setdij_                                34.441833        1042
 rpro_isp                               30.702338          52
 vhamil                                 26.674119       56700
 strnlr                                 22.816225           4
 w1_dscal                               18.156710       53669
 set_dd_paw                             11.975402         941
 hamiltmu                               11.530565        2198
 m_bcast_z                               9.714763        2023
 fornlr                                  7.586263           4
 densta                                  7.560688         944
 depsum                                  6.982237         933
 rpromu                                  6.416698        1560
 ggemm                                   5.854409        2793
 fft_gq                                  4.836814         933
 m_bcast_d                               4.408810        7547
 newband                                 3.636021        2203
 raccmu_                                 3.512192        2198
 lapack                                  3.406364        2198
 overl                                   2.897415       59312
 proall                                  2.402310           4
 w1_projall                              2.292686        1603
 rpromu_gemm                             1.972781      318240
 rspher_all                              1.618077          53
 pothar                                  1.538578         937
 fewald                                  1.519843        1878
 forloc                                  1.481870           4
 forhar                                  1.457711           4
 rsp                                     1.278440        1878
 stufak                                  0.931458           4
 fordep                                  0.747966           4
 wavpre_noio                             0.724734           3
 inisym                                  0.355490           1
 w1_copy                                 0.254215        6594
 rcp                                     0.094040        1878
 apply_precond                           0.084841        1603
 setup_precond                           0.076056         595
 overl1                                  0.068872        2198
 strkin                                  0.043178           4
 posmap                                  0.037644           2
 strehar                                 0.019753           4
 strelo                                  0.017858           4
 truncate_high_frequency_w1              0.002419        2793
 set_rsgf_all                            0.002168         941
 potlok_metagga                          0.001211         937
 brgrid                                  0.000643           1
 phaser                                  0.000403         508
 crpa_reader                             0.000232           1
 rotate_active_occupied_orbital          0.000074           4
 vectorpot                               0.000032           1
 set_dd_magatom                          0.000027           8
 shift_bands_between_low_high            0.000011           7
 ---------------------------------------------------------------
 
Profiling took  11.381738  3.712965  0.007480  0.006678 seconds
Profiling took  13.302204 seconds
