 vasp.6.3.2 27Jun22 (build Jan 03 2024 23:25:20) gamma-only                     
  
 executed on           IFC15_impi date 2024.06.03  10:44:58
 running 2048 mpi-ranks, with    1 threads/rank
 distrk:  each k-point on 2048 cores,    1 groups
 distr:  one band on NCORE=  32 cores,   64 groups


--------------------------------------------------------------------------------------------------------


 INCAR:
   ENCUT = 500.000000
   SIGMA = 0.010000
   EDIFF = 1.00e-05
   ALGO = A
   ISMEAR = 0
   NELM = 2000
   NSW = 500
   NCORE = 32
   LCHARG = .FALSE.
   LWAVE = .FALSE.
   LREAL = Auto
   IBRION = 2
   EDIFFG = -0.05
   GGA = BF
   LUSE_VDW = .TRUE.
   ZAB_VDW = -1.8867
   LBEEFENS = .TRUE.
   DIPOL = 0.5 0.5 0.65
   IDIPOL = 3
   LDIPOL = .TRUE.

 POTCAR:    PAW_PBE Au 04Oct2007                  
 POTCAR:    PAW_PBE C 08Apr2002                   
 POTCAR:    PAW_PBE H 15Jun2001                   
 POTCAR:    PAW_PBE O 08Apr2002                   
 POTCAR:    PAW_PBE Sr_sv 07Sep2000               
 POTCAR:    PAW_PBE Ti_sv 26Sep2005               
 -----------------------------------------------------------------------------
|                                                                             |
|               ----> ADVICE to this user running VASP <----                  |
|                                                                             |
|     You have switched on vdW-DFT.                                           |
|     This routine was written and supplied by Jiri Klimes. We recommend      |
|     that you carefully read and cite the following publications:            |
|       J. Klimes, D.R. Bowler, A. Michelides                                 |
|          J. Phys.: Cond Matt. 22 022201 (2010)                              |
|       J. Klimes, D.R. Bowler, A. Michelides                                 |
|          Phys. Rev. B. 83, 195131 (2011)                                    |
|     and references therein.                                                 |
|                                                                             |
 -----------------------------------------------------------------------------

 POTCAR:    PAW_PBE Au 04Oct2007                  
   SHA256 =  d0044ae04e2bdce24051b198fc5c053d722a5bc6fe3c3b100514a13fc5d2db88 Au/POTCAR             
   COPYR  = (c) Copyright 04Oct2007 Georg Kresse                                                    
   COPYR  = This file is part of the software VASP. Any use, copying, and all other rights are regul
   COPYR  = If you do not have a valid VASP license, you may not use, copy or distribute this file. 
   VRHFIN =Au: s1d10                                                                                
   LEXCH  = PE                                                                                      
   EATOM  =   926.0867 eV,   68.0654 Ry                                                             
                                                                                                    
   TITEL  = PAW_PBE Au 04Oct2007                                                                    
   LULTRA =        F    use ultrasoft PP ?                                                          
   IUNSCR =        1    unscreen: 0-lin 1-nonlin 2-no                                               
   RPACOR =    2.330    partial core radius                                                         
   POMASS =  196.966; ZVAL   =   11.000    mass and valenz                                          
   RCORE  =    2.500    outmost cutoff radius                                                       
   RWIGS  =    2.840; RWIGS  =    1.503    wigner-seitz radius (au A)                               
   ENMAX  =  229.943; ENMIN  =  172.457 eV                                                          
   ICORE  =        3    local potential                                                             
   LCOR   =        T    correct aug charges                                                         
   LPAW   =        T    paw PP                                                                      
   EAUG   =  356.670                                                                                
   DEXC   =    0.000                                                                                
   RMAX   =    2.562    core radius for proj-oper                                                   
   RAUG   =    1.300    factor for augmentation sphere                                              
   RDEP   =    2.598    radius for radial grids                                                     
   RDEPT  =    2.193    core radius for aug-charge                                                  
                                                                                                    
   Atomic configuration                                                                             
   16 entries                                                                                       
     n  l   j            E        occ.                                                              
     1  0  0.50    -80748.5001   2.0000                                                             
     2  0  0.50    -14244.7466   2.0000                                                             
     2  1  1.50    -12310.9591   6.0000                                                             
     3  0  0.50     -3362.1768   2.0000                                                             
     3  1  1.50     -2801.5463   6.0000                                                             
     3  2  2.50     -2203.8206  10.0000                                                             
     4  0  0.50      -729.8168   2.0000                                                             
     4  1  1.50      -546.0527   6.0000                                                             
     4  2  2.50      -325.7302  10.0000                                                             
     4  3  3.50       -81.1472  14.0000                                                             
     5  0  0.50      -108.3201   2.0000                                                             
     5  1  1.50       -59.7479   6.0000                                                             
     5  2  2.50        -6.8783  10.0000                                                             
     6  0  0.50        -5.7602   1.0000                                                             
     6  1  1.50        -6.8029   0.0000                                                             
     5  3  2.50        -1.3606   0.0000                                                             
   Description                                                                                      
     l       E           TYP  RCUT    TYP  RCUT                                                     
     2     -6.8782861     23  2.500                                                                 
     2     -8.2388687     23  2.500                                                                 
     0     -5.7601759     23  2.500                                                                 
     0     -0.8493231     23  2.500                                                                 
     1     -2.7211652     23  2.500                                                                 
     1     27.2116520     23  2.500                                                                 
     3     -1.3605826     23  2.500                                                                 
  local pseudopotential read in
  partial core-charges read in
  partial kinetic energy density read in
  atomic valenz-charges read in
  non local Contribution for L=           2  read in
    real space projection operators read in
  non local Contribution for L=           2  read in
    real space projection operators read in
  non local Contribution for L=           0  read in
    real space projection operators read in
  non local Contribution for L=           0  read in
    real space projection operators read in
  non local Contribution for L=           1  read in
    real space projection operators read in
  non local Contribution for L=           1  read in
    real space projection operators read in
    PAW grid and wavefunctions read in
 
   number of l-projection  operators is LMAX  =           6
   number of lm-projection operators is LMMAX =          18
 
 POTCAR:    PAW_PBE C 08Apr2002                   
   SHA256 =  253f7b50bb8d59471dbedb8285d89021f4a42ed1a2c5d38a03a736e69125dd95 C/POTCAR              
   COPYR  = (c) Copyright 08Apr2002 Georg Kresse                                                    
   COPYR  = This file is part of the software VASP. Any use, copying, and all other rights are regul
   COPYR  = If you do not have a valid VASP license, you may not use, copy or distribute this file. 
   VRHFIN =C: s2p2                                                                                  
   LEXCH  = PE                                                                                      
   EATOM  =   147.1560 eV,   10.8157 Ry                                                             
                                                                                                    
   TITEL  = PAW_PBE C 08Apr2002                                                                     
   LULTRA =        F    use ultrasoft PP ?                                                          
   IUNSCR =        1    unscreen: 0-lin 1-nonlin 2-no                                               
   RPACOR =    1.200    partial core radius                                                         
   POMASS =   12.011; ZVAL   =    4.000    mass and valenz                                          
   RCORE  =    1.500    outmost cutoff radius                                                       
   RWIGS  =    1.630; RWIGS  =    0.863    wigner-seitz radius (au A)                               
   ENMAX  =  400.000; ENMIN  =  300.000 eV                                                          
   ICORE  =        2    local potential                                                             
   LCOR   =        T    correct aug charges                                                         
   LPAW   =        T    paw PP                                                                      
   EAUG   =  644.873                                                                                
   DEXC   =    0.000                                                                                
   RMAX   =    1.529    core radius for proj-oper                                                   
   RAUG   =    1.300    factor for augmentation sphere                                              
   RDEP   =    1.501    radius for radial grids                                                     
   RDEPT  =    1.300    core radius for aug-charge                                                  
                                                                                                    
   Atomic configuration                                                                             
    4 entries                                                                                       
     n  l   j            E        occ.                                                              
     1  0  0.50      -273.3789   2.0000                                                             
     2  0  0.50       -13.7508   2.0000                                                             
     2  1  0.50        -5.2854   2.0000                                                             
     3  2  1.50        -5.4423   0.0000                                                             
   Description                                                                                      
     l       E           TYP  RCUT    TYP  RCUT                                                     
     0    -13.7508458     23  1.200                                                                 
     0     -8.2022199     23  1.200                                                                 
     1     -5.2854383     23  1.500                                                                 
     1     34.0145650     23  1.500                                                                 
     2     -5.4423304      7  1.500                                                                 
  local pseudopotential read in
  partial core-charges read in
  partial kinetic energy density read in
  atomic valenz-charges read in
  non local Contribution for L=           0  read in
    real space projection operators read in
  non local Contribution for L=           0  read in
    real space projection operators read in
  non local Contribution for L=           1  read in
    real space projection operators read in
  non local Contribution for L=           1  read in
    real space projection operators read in
    PAW grid and wavefunctions read in
 
   number of l-projection  operators is LMAX  =           4
   number of lm-projection operators is LMMAX =           8
 
 POTCAR:    PAW_PBE H 15Jun2001                   
   SHA256 =  030f79b5d3ab3cf0e668861823c8fb652ff669f3e15e46930bd03bfd63a607b6 H/POTCAR              
   COPYR  = (c) Copyright 15Jun2001 Georg Kresse                                                    
   COPYR  = This file is part of the software VASP. Any use, copying, and all other rights are regul
   COPYR  = If you do not have a valid VASP license, you may not use, copy or distribute this file. 
   VRHFIN =H: ultrasoft test                                                                        
   LEXCH  = PE                                                                                      
   EATOM  =    12.4884 eV,    0.9179 Ry                                                             
                                                                                                    
   TITEL  = PAW_PBE H 15Jun2001                                                                     
   LULTRA =        F    use ultrasoft PP ?                                                          
   IUNSCR =        0    unscreen: 0-lin 1-nonlin 2-no                                               
   RPACOR =    0.000    partial core radius                                                         
   POMASS =    1.000; ZVAL   =    1.000    mass and valenz                                          
   RCORE  =    1.100    outmost cutoff radius                                                       
   RWIGS  =    0.700; RWIGS  =    0.370    wigner-seitz radius (au A)                               
   ENMAX  =  250.000; ENMIN  =  200.000 eV                                                          
   RCLOC  =    0.701    cutoff for local pot                                                        
   LCOR   =        T    correct aug charges                                                         
   LPAW   =        T    paw PP                                                                      
   EAUG   =  400.000                                                                                
   RMAX   =    1.123    core radius for proj-oper                                                   
   RAUG   =    1.200    factor for augmentation sphere                                              
   RDEP   =    1.112    radius for radial grids                                                     
   RDEPT  =    0.926    core radius for aug-charge                                                  
                                                                                                    
   Atomic configuration                                                                             
    2 entries                                                                                       
     n  l   j            E        occ.                                                              
     1  0  0.50        -6.4927   1.0000                                                             
     2  1  0.50        -3.4015   0.0000                                                             
   Description                                                                                      
     l       E           TYP  RCUT    TYP  RCUT                                                     
     0     -6.4927494     23  1.100                                                                 
     0      6.8029130     23  1.100                                                                 
     1     -4.0817478     23  1.100                                                                 
  local pseudopotential read in
  atomic valenz-charges read in
  non local Contribution for L=           0  read in
    real space projection operators read in
  non local Contribution for L=           0  read in
    real space projection operators read in
  non local Contribution for L=           1  read in
    real space projection operators read in
    PAW grid and wavefunctions read in
 
   number of l-projection  operators is LMAX  =           3
   number of lm-projection operators is LMMAX =           5
 
 POTCAR:    PAW_PBE O 08Apr2002                   
   SHA256 =  818f92134a0a090dccd8ba1447fa70422a3b330e708bb4f08108d8ae51209ddf O/POTCAR              
   COPYR  = (c) Copyright 08Apr2002 Georg Kresse                                                    
   COPYR  = This file is part of the software VASP. Any use, copying, and all other rights are regul
   COPYR  = If you do not have a valid VASP license, you may not use, copy or distribute this file. 
   VRHFIN =O: s2p4                                                                                  
   LEXCH  = PE                                                                                      
   EATOM  =   432.3788 eV,   31.7789 Ry                                                             
                                                                                                    
   TITEL  = PAW_PBE O 08Apr2002                                                                     
   LULTRA =        F    use ultrasoft PP ?                                                          
   IUNSCR =        1    unscreen: 0-lin 1-nonlin 2-no                                               
   RPACOR =    1.200    partial core radius                                                         
   POMASS =   16.000; ZVAL   =    6.000    mass and valenz                                          
   RCORE  =    1.520    outmost cutoff radius                                                       
   RWIGS  =    1.550; RWIGS  =    0.820    wigner-seitz radius (au A)                               
   ENMAX  =  400.000; ENMIN  =  300.000 eV                                                          
   ICORE  =        2    local potential                                                             
   LCOR   =        T    correct aug charges                                                         
   LPAW   =        T    paw PP                                                                      
   EAUG   =  605.392                                                                                
   DEXC   =    0.000                                                                                
   RMAX   =    1.553    core radius for proj-oper                                                   
   RAUG   =    1.300    factor for augmentation sphere                                              
   RDEP   =    1.550    radius for radial grids                                                     
   RDEPT  =    1.329    core radius for aug-charge                                                  
                                                                                                    
   Atomic configuration                                                                             
    4 entries                                                                                       
     n  l   j            E        occ.                                                              
     1  0  0.50      -514.6923   2.0000                                                             
     2  0  0.50       -23.9615   2.0000                                                             
     2  1  0.50        -9.0305   4.0000                                                             
     3  2  1.50        -9.5241   0.0000                                                             
   Description                                                                                      
     l       E           TYP  RCUT    TYP  RCUT                                                     
     0    -23.9615318     23  1.200                                                                 
     0     -9.5240782     23  1.200                                                                 
     1     -9.0304911     23  1.520                                                                 
     1      8.1634956     23  1.520                                                                 
     2     -9.5240782      7  1.500                                                                 
  local pseudopotential read in
  partial core-charges read in
  partial kinetic energy density read in
  kinetic energy density of atom read in
  atomic valenz-charges read in
  non local Contribution for L=           0  read in
    real space projection operators read in
  non local Contribution for L=           0  read in
    real space projection operators read in
  non local Contribution for L=           1  read in
    real space projection operators read in
  non local Contribution for L=           1  read in
    real space projection operators read in
    PAW grid and wavefunctions read in
 
   number of l-projection  operators is LMAX  =           4
   number of lm-projection operators is LMMAX =           8
 
 POTCAR:    PAW_PBE Sr_sv 07Sep2000               
   SHA256 =  a8389d3481648516ee67182ee030b298d280b37e29cbbf2d8595f040d757c710 Sr_sv/POTCAR          
   COPYR  = (c) Copyright 07Sep2000 Georg Kresse                                                    
   COPYR  = This file is part of the software VASP. Any use, copying, and all other rights are regul
   COPYR  = If you do not have a valid VASP license, you may not use, copy or distribute this file. 
   VRHFIN =Sr: 4s4p5s                                                                               
   LEXCH  = PE                                                                                      
   EATOM  =   843.0319 eV,   61.9611 Ry                                                             
                                                                                                    
   TITEL  = PAW_PBE Sr_sv 07Sep2000                                                                 
   LULTRA =        F    use ultrasoft PP ?                                                          
   IUNSCR =        1    unscreen: 0-lin 1-nonlin 2-no                                               
   RPACOR =    2.200    partial core radius                                                         
   POMASS =   87.620; ZVAL   =   10.000    mass and valenz                                          
   RCORE  =    2.500    outmost cutoff radius                                                       
   RWIGS  =    4.040; RWIGS  =    2.138    wigner-seitz radius (au A)                               
   ENMAX  =  229.353; ENMIN  =  172.014 eV                                                          
   RCLOC  =    2.201    cutoff for local pot                                                        
   LCOR   =        T    correct aug charges                                                         
   LPAW   =        T    paw PP                                                                      
   EAUG   =  366.804                                                                                
   DEXC   =    0.000                                                                                
   RMAX   =    2.547    core radius for proj-oper                                                   
   RAUG   =    1.300    factor for augmentation sphere                                              
   RDEP   =    2.562    radius for radial grids                                                     
   RDEPT  =    2.128    core radius for aug-charge                                                  
                                                                                                    
   Atomic configuration                                                                             
   10 entries                                                                                       
     n  l   j            E        occ.                                                              
     1  0  0.50    -15934.8930   2.0000                                                             
     2  0  0.50     -2157.6250   2.0000                                                             
     2  1  1.50     -1917.0034   6.0000                                                             
     3  0  0.50      -333.7288   2.0000                                                             
     3  1  1.50      -256.0992   6.0000                                                             
     3  2  2.50      -127.9971  10.0000                                                             
     4  0  0.50       -40.8953   2.0000                                                             
     5  0  0.50        -3.5257   1.9990                                                             
     4  1  1.50       -22.8179   6.0000                                                             
     4  2  1.50        -1.2815   0.0010                                                             
   Description                                                                                      
     l       E           TYP  RCUT    TYP  RCUT                                                     
     0    -40.8953213     23  2.480                                                                 
     0     -3.5257161     23  2.480                                                                 
     1    -22.8178632     23  2.500                                                                 
     1    -24.1784458     23  2.500                                                                 
     2     -1.2814598     23  2.500                                                                 
     2      0.2279365     23  2.500                                                                 
  local pseudopotential read in
  partial core-charges read in
  partial kinetic energy density read in
  atomic valenz-charges read in
  non local Contribution for L=           0  read in
    real space projection operators read in
  non local Contribution for L=           0  read in
    real space projection operators read in
  non local Contribution for L=           1  read in
    real space projection operators read in
  non local Contribution for L=           1  read in
    real space projection operators read in
  non local Contribution for L=           2  read in
    real space projection operators read in
  non local Contribution for L=           2  read in
    real space projection operators read in
    PAW grid and wavefunctions read in
 
   number of l-projection  operators is LMAX  =           6
   number of lm-projection operators is LMMAX =          18
 
 POTCAR:    PAW_PBE Ti_sv 26Sep2005               
   SHA256 =  4d747badb5a5ea28d858fbac70885b3f8929d6fd9e5b0dbe1ecb9878dc164da1 Ti_sv/POTCAR          
   COPYR  = (c) Copyright 26Sep2005 Georg Kresse                                                    
   COPYR  = This file is part of the software VASP. Any use, copying, and all other rights are regul
   COPYR  = If you do not have a valid VASP license, you may not use, copy or distribute this file. 
   VRHFIN =Ti: 3p4s3d                                                                               
   LEXCH  = PE                                                                                      
   EATOM  =  1588.0892 eV,  116.7213 Ry                                                             
                                                                                                    
   TITEL  = PAW_PBE Ti_sv 26Sep2005                                                                 
   LULTRA =        F    use ultrasoft PP ?                                                          
   IUNSCR =        1    unscreen: 0-lin 1-nonlin 2-no                                               
   RPACOR =    2.000    partial core radius                                                         
   POMASS =   47.880; ZVAL   =   12.000    mass and valenz                                          
   RCORE  =    2.300    outmost cutoff radius                                                       
   RWIGS  =    2.300; RWIGS  =    1.217    wigner-seitz radius (au A)                               
   ENMAX  =  274.610; ENMIN  =  205.957 eV                                                          
   ICORE  =        3    local potential                                                             
   LCOR   =        T    correct aug charges                                                         
   LPAW   =        T    paw PP                                                                      
   EAUG   =  482.848                                                                                
   RMAX   =    2.348    core radius for proj-oper                                                   
   RAUG   =    1.300    factor for augmentation sphere                                              
   RDEP   =    2.381    radius for radial grids                                                     
   RDEPT  =    1.930    core radius for aug-charge                                                  
                                                                                                    
   Atomic configuration                                                                             
    8 entries                                                                                       
     n  l   j            E        occ.                                                              
     1  0  0.50     -4865.3608   2.0000                                                             
     2  0  0.50      -533.1368   2.0000                                                             
     2  1  1.50      -440.5031   6.0000                                                             
     3  0  0.50       -59.3186   2.0000                                                             
     4  0  0.50        -3.7291   1.0000                                                             
     3  1  1.50       -35.7012   6.0000                                                             
     3  2  2.50        -1.9157   3.0000                                                             
     4  3  2.50        -1.3606   0.0000                                                             
   Description                                                                                      
     l       E           TYP  RCUT    TYP  RCUT                                                     
     0    -59.3185931     23  1.800                                                                 
     0     -3.7290822     23  2.300                                                                 
     1    -35.7012045     23  2.300                                                                 
     1     -1.3605826     23  2.300                                                                 
     2     -1.9156920     23  2.300                                                                 
     2     -0.0236318     23  2.300                                                                 
     3     -1.3605826     23  2.300                                                                 
  local pseudopotential read in
  partial core-charges read in
  partial kinetic energy density read in
  atomic valenz-charges read in
  non local Contribution for L=           0  read in
    real space projection operators read in
  non local Contribution for L=           0  read in
    real space projection operators read in
  non local Contribution for L=           1  read in
    real space projection operators read in
  non local Contribution for L=           1  read in
    real space projection operators read in
  non local Contribution for L=           2  read in
    real space projection operators read in
  non local Contribution for L=           2  read in
    real space projection operators read in
    PAW grid and wavefunctions read in
 
   number of l-projection  operators is LMAX  =           6
   number of lm-projection operators is LMMAX =          18
 
 Optimization of the real space projectors (new method)

 maximal supplied QI-value         = 15.12
 optimisation between [QCUT,QGAM] = [ 11.34, 22.83] = [ 36.00,145.93] Ry 
 Optimized for a Real-space Cutoff    1.39 Angstroem

   l    n(q)    QCUT    max X(q) W(low)/X(q) W(high)/X(q)  e(spline) 
   2      9    11.338    60.898    0.39E-03    0.42E-03    0.21E-06
   2      9    11.338    58.894    0.40E-03    0.42E-03    0.22E-06
   0      9    11.338   109.617    0.13E-03    0.20E-04    0.13E-06
   0      9    11.338    75.026    0.13E-03    0.20E-04    0.13E-06
   1      9    11.338    16.344    0.33E-04    0.24E-03    0.18E-06
   1      9    11.338    10.160    0.26E-04    0.19E-03    0.15E-06
 Optimization of the real space projectors (new method)

 maximal supplied QI-value         = 25.13
 optimisation between [QCUT,QGAM] = [ 11.31, 22.87] = [ 35.82,146.48] Ry 
 Optimized for a Real-space Cutoff    1.00 Angstroem

   l    n(q)    QCUT    max X(q) W(low)/X(q) W(high)/X(q)  e(spline) 
   0      7    11.310   115.676    0.43E-03    0.13E-02    0.19E-06
   0      7    11.310    87.132    0.43E-03    0.13E-02    0.18E-06
   1      6    11.310     4.429    0.42E-03    0.74E-03    0.11E-06
   1      6    11.310     2.733    0.34E-03    0.55E-03    0.92E-07
 Optimization of the real space projectors (new method)

 maximal supplied QI-value         = 34.20
 optimisation between [QCUT,QGAM] = [ 11.29, 22.57] = [ 35.68,142.71] Ry 
 Optimized for a Real-space Cutoff    1.16 Angstroem

   l    n(q)    QCUT    max X(q) W(low)/X(q) W(high)/X(q)  e(spline) 
   0      8    11.287    19.460    0.40E-03    0.73E-03    0.16E-06
   0      8    11.287    12.209    0.38E-03    0.70E-03    0.15E-06
   1      7    11.287     4.655    0.22E-03    0.25E-04    0.22E-06
 Optimization of the real space projectors (new method)

 maximal supplied QI-value         = 24.76
 optimisation between [QCUT,QGAM] = [ 11.39, 22.77] = [ 36.31,145.25] Ry 
 Optimized for a Real-space Cutoff    1.00 Angstroem

   l    n(q)    QCUT    max X(q) W(low)/X(q) W(high)/X(q)  e(spline) 
   0      7    11.387    20.381    0.39E-03    0.13E-02    0.15E-06
   0      7    11.387    15.268    0.42E-03    0.14E-02    0.17E-06
   1      6    11.387     5.964    0.41E-03    0.11E-02    0.17E-06
   1      6    11.387     5.382    0.39E-03    0.87E-03    0.15E-06
 Optimization of the real space projectors (new method)

 maximal supplied QI-value         = 15.12
 optimisation between [QCUT,QGAM] = [ 11.34, 22.83] = [ 36.00,145.93] Ry 
 Optimized for a Real-space Cutoff    1.56 Angstroem

   l    n(q)    QCUT    max X(q) W(low)/X(q) W(high)/X(q)  e(spline) 
   0     11    11.338    11.565    0.26E-04    0.80E-05    0.70E-07
   0     11    11.338    10.214    0.41E-04    0.15E-04    0.15E-06
   1     10    11.338   189.983    0.18E-03    0.52E-04    0.42E-06
   1     10    11.338   193.105    0.19E-03    0.52E-04    0.42E-06
   2     10    11.338   115.941    0.22E-03    0.42E-03    0.43E-06
   2     10    11.338    76.444    0.21E-03    0.41E-03    0.42E-06
 Optimization of the real space projectors (new method)

 maximal supplied QI-value         = 16.25
 optimisation between [QCUT,QGAM] = [ 11.38, 22.75] = [ 36.24,144.96] Ry 
 Optimized for a Real-space Cutoff    1.27 Angstroem

   l    n(q)    QCUT    max X(q) W(low)/X(q) W(high)/X(q)  e(spline) 
   0      9    11.376    12.277    0.53E-04    0.25E-04    0.25E-07
   0      9    11.376    11.419    0.89E-04    0.67E-05    0.35E-07
   1      8    11.376     4.010    0.13E-03    0.11E-03    0.29E-07
   1      8    11.376     6.182    0.94E-04    0.19E-03    0.11E-06
   2      8    11.376    47.177    0.13E-03    0.88E-03    0.24E-06
   2      8    11.376    42.437    0.13E-03    0.86E-03    0.23E-06
 -----------------------------------------------------------------------------
|                                                                             |
|               ----> ADVICE to this user running VASP <----                  |
|                                                                             |
|     You enforced a specific xc type in the INCAR file but a different       |
|     type was found in the POTCAR file.                                      |
|     I HOPE YOU KNOW WHAT YOU ARE DOING!                                     |
|                                                                             |
 -----------------------------------------------------------------------------

  PAW_PBE Au 04Oct2007                  :
 energy of atom  1       EATOM= -926.0867
 kinetic energy error for atom=    0.0042 (will be added to EATOM!!)
  PAW_PBE C 08Apr2002                   :
 energy of atom  2       EATOM= -147.1560
 kinetic energy error for atom=    0.0076 (will be added to EATOM!!)
  PAW_PBE H 15Jun2001                   :
 energy of atom  3       EATOM=  -12.4884
 kinetic energy error for atom=    0.0020 (will be added to EATOM!!)
  PAW_PBE O 08Apr2002                   :
 energy of atom  4       EATOM= -432.3788
 kinetic energy error for atom=    0.0224 (will be added to EATOM!!)
  PAW_PBE Sr_sv 07Sep2000               :
 energy of atom  5       EATOM= -843.0319
 kinetic energy error for atom=    0.0012 (will be added to EATOM!!)
  PAW_PBE Ti_sv 26Sep2005               :
 energy of atom  6       EATOM=-1588.0892
 kinetic energy error for atom=    0.0046 (will be added to EATOM!!)
 
 
 POSCAR: Au  C  H  O Sr Ti
  positions in direct lattice
  velocities in cartesian coordinates
 exchange correlation table for  LEXCH =       17
   RHO(1)=    0.500       N(1)  =     2000
   RHO(2)=  100.500       N(2)  =     4000

 VTST: version 4.1, (05/19/21)

 CHAIN: initializing optimizer
 
 OPT: Using VASP Conjugate-Gradient optimizer
 CHAIN: Read ICHAIN            0
 
 POSCAR: Au  C  H  O Sr Ti
  positions in direct lattice
  velocities in cartesian coordinates
 


--------------------------------------------------------------------------------------------------------


 ion  position               nearest neighbor table
   1  0.712  0.625  0.755-  23 2.69  19 2.74  38 2.78  16 2.81  18 2.81  46 2.90  40 3.05  31 3.52

   2  0.294  0.798  0.697- 378 2.07 356 2.07  26 2.78  33 2.82  48 3.10  44 3.11  27 3.55 461 4.18
                           483 4.20
   3  0.508  0.685  0.778-  39 2.68  42 2.77  11 2.84  13 2.94  45 2.94  19 2.98  41 2.98   4 3.12
                            43 3.41   8 3.46  18 3.55  36 3.56
   4  0.578  0.779  0.794-  17 2.73  31 2.74  41 2.80  37 2.81  11 3.04   3 3.12  42 3.15  19 3.23

   5  0.240  0.575  0.709- 291 2.12  21 2.69  35 2.81  27 2.83  49 2.96  30 3.06 458 4.18
   6  0.602  0.427  0.784-  10 2.76   9 2.78  50 2.82  12 2.86  14 2.96  28 2.98  25 3.26
   7  0.514  0.588  0.678- 395 2.11 234 2.15  39 2.69  13 2.80  25 2.89  43 2.89 566 3.14  18 3.28
                            40 3.28 428 3.56  32 3.60 427 4.01
   8  0.567  0.612  0.859-  29 2.74  46 2.80  19 2.84  45 2.86  41 2.88  13 2.92  12 3.05   3 3.46

   9  0.486  0.417  0.774-  24 2.74   6 2.78  25 2.83  14 2.83  22 2.87  20 2.87  12 3.39
  10  0.619  0.456  0.698- 335 2.04   6 2.76  50 2.80  14 2.85  40 2.87  25 2.89  15 3.26  28 3.50
                           440 3.54 428 4.26
  11  0.461  0.758  0.833-  44 2.79  41 2.83   3 2.84  36 2.85  45 2.94  17 2.96   4 3.04
  12  0.552  0.508  0.827-  29 2.82   6 2.86  46 2.90  20 2.93  25 2.93  13 3.03   8 3.05   9 3.39

  13  0.562  0.592  0.763-   7 2.80  25 2.82  43 2.83  46 2.87   8 2.92  18 2.92   3 2.94  19 2.98
                            40 3.00  12 3.03
  14  0.554  0.371  0.710- 394 2.10  24 2.81   9 2.83  10 2.85  28 2.86   6 2.96 404 3.93
  15  0.738  0.397  0.694-  54 2.02 366 2.03 266 2.05  28 2.66 570 3.05  10 3.26  50 3.41 435 4.16
                           413 4.32
  16  0.761  0.551  0.704- 271 2.00  38 2.72  40 2.75   1 2.81  50 2.99 416 3.81 440 4.18
  17  0.486  0.821  0.755-   4 2.73  33 2.82  44 2.86  37 2.91  48 2.95  11 2.96  42 3.15
  18  0.620  0.658  0.704- 349 2.08   1 2.81  23 2.85  42 2.88  40 2.90  13 2.92  19 2.96  31 3.04
                             7 3.28   3 3.55 411 3.69
  19  0.630  0.672  0.801-   1 2.74  31 2.76  41 2.77   8 2.84  18 2.96   3 2.98  13 2.98  46 3.16
                             4 3.23
  20  0.430  0.497  0.815-  29 2.75  22 2.79   9 2.87  43 2.90  12 2.93  49 3.00  34 3.06  25 3.26

  21  0.349  0.600  0.698- 381 2.11   5 2.69  32 2.88  43 2.91  35 2.91  49 2.92  27 3.01  39 3.02
                           483 4.16 482 4.27
  22  0.370  0.439  0.756-  32 2.77  30 2.77  20 2.79  49 2.82  24 2.85   9 2.87
  23  0.732  0.693  0.693- 360 2.09 353 2.11  31 2.67   1 2.69  18 2.85  47 3.20 411 3.39 480 3.70

  24  0.437  0.381  0.698- 301 2.01 315 2.14   9 2.74  14 2.81  22 2.85  32 3.60 404 3.92 412 4.29

  25  0.520  0.503  0.733-  13 2.82   9 2.83  43 2.86   7 2.89  10 2.89  12 2.93  32 3.16  20 3.26
                             6 3.26  40 3.51 428 4.14
  26  0.285  0.730  0.764-  27 2.69  36 2.75  44 2.77   2 2.78  35 2.81
  27  0.257  0.674  0.695- 316 2.03 378 2.11  26 2.69   5 2.83  35 2.89  21 3.01   2 3.55 483 3.56
                           443 3.70
  28  0.664  0.347  0.741-  55 2.12  15 2.66  14 2.86   6 2.98  10 3.50 435 4.25
  29  0.472  0.560  0.877-   8 2.74  20 2.75  45 2.80  34 2.81  12 2.82
  30  0.282  0.472  0.702- 391 2.06  22 2.77  49 2.81  32 2.92   5 3.06 482 3.53 458 4.07
  31  0.670  0.746  0.749-  47 2.62  23 2.67   4 2.74  19 2.76  37 3.04  18 3.04  42 3.39   1 3.52

  32  0.398  0.506  0.691- 300 2.03 315 2.12  22 2.77  21 2.88  30 2.92  49 3.01  43 3.03  25 3.16
                           482 3.40   7 3.60  24 3.60 428 3.79
  33  0.392  0.854  0.707- 246 2.07  48 2.78  44 2.80  17 2.82   2 2.82 461 3.67 442 4.11
  34  0.375  0.594  0.833-  29 2.81  35 2.81  49 2.84  43 2.85  36 2.86  45 2.88  20 3.06
  35  0.289  0.630  0.778-  26 2.81  34 2.81   5 2.81  49 2.89  27 2.89  36 2.89  21 2.91
  36  0.368  0.695  0.820-  26 2.75  45 2.77  11 2.85  34 2.86  35 2.89  44 3.00   3 3.56
  37  0.597  0.827  0.713- 337 2.09  47 2.79   4 2.81  17 2.91  42 2.93  31 3.04 456 4.19
  38  0.775  0.553  0.794-  16 2.72   1 2.78  50 2.81  46 2.92
  39  0.451  0.664  0.703- 381 2.11   3 2.68   7 2.69  48 2.73  42 2.87  43 2.88  21 3.02 427 3.64

  40  0.646  0.557  0.696- 395 2.17  16 2.75  10 2.87  18 2.90  13 3.00   1 3.05  50 3.06   7 3.28
                           440 3.51  25 3.51
  41  0.561  0.714  0.865-  19 2.77   4 2.80  11 2.83  45 2.84   8 2.88   3 2.98
  42  0.540  0.735  0.702- 389 2.11   3 2.77  39 2.87  18 2.88  37 2.93  48 3.00  17 3.15   4 3.15
                            31 3.39 427 3.49
  43  0.443  0.579  0.757-  13 2.83  34 2.85  25 2.86  39 2.88   7 2.89  20 2.90  21 2.91  32 3.03
                            49 3.11   3 3.41
  44  0.374  0.793  0.779-  26 2.77  48 2.77  11 2.79  33 2.80  17 2.86  36 3.00   2 3.11
  45  0.460  0.659  0.865-  36 2.77  29 2.80  41 2.84   8 2.86  34 2.88   3 2.94  11 2.94
  46  0.656  0.563  0.817-   8 2.80  50 2.81  13 2.87   1 2.90  12 2.90  38 2.92  19 3.16
  47  0.707  0.806  0.688- 358 2.04 353 2.06  31 2.62  37 2.79 515 3.11  23 3.20 456 3.80 411 4.19

  48  0.416  0.757  0.700- 369 2.03  39 2.73  44 2.77  33 2.78  17 2.95  42 3.00   2 3.10 483 4.02
                           427 4.11
  49  0.325  0.532  0.769-  30 2.81  22 2.82  34 2.84  35 2.89  21 2.92   5 2.96  20 3.00  32 3.01
                            43 3.11
  50  0.695  0.487  0.764-  54 2.12  10 2.80  46 2.81  38 2.81   6 2.82  16 2.99  40 3.06  15 3.41

  51  0.652  0.250  0.805-  57 1.10  56 1.10  52 1.53  53 1.53
  52  0.615  0.206  0.814-  61 1.09  63 1.09  60 1.09  51 1.53
  53  0.685  0.246  0.761-  62 1.10  58 1.11  55 1.51  51 1.53
  54  0.756  0.433  0.750-  66 1.09  65 1.09  15 2.02  50 2.12
  55  0.721  0.289  0.751-  64 1.09  59 1.09  53 1.51  28 2.12
  56  0.625  0.282  0.805-  51 1.10
  57  0.682  0.255  0.833-  51 1.10
  58  0.714  0.215  0.763-  53 1.11
  59  0.749  0.300  0.778-  55 1.09
  60  0.583  0.201  0.787-  52 1.09
  61  0.640  0.173  0.815-  52 1.09
  62  0.656  0.238  0.733-  53 1.10
  63  0.592  0.209  0.845-  52 1.09
  64  0.744  0.286  0.719-  55 1.09
  65  0.755  0.411  0.781-  54 1.09
  66  0.796  0.453  0.747-  54 1.09
  67  0.586  0.852  0.551- 558 1.94 530 2.07 479 2.76 477 2.81 456 2.89 442 3.00
  68  0.667  0.400  0.407- 572 1.97 555 1.97 447 2.79 410 2.79 465 2.86
  69  0.918  0.651  0.547- 540 1.85 492 2.23 459 2.69 400 2.74 480 2.88 473 3.35
  70  0.333  0.800  0.407- 491 1.97 507 1.97 452 2.79 430 2.79 451 2.84
  71  0.334  0.301  0.499- 573 1.95 508 2.01 437 2.73 474 2.75 446 2.84 412 3.40
  72  1.000  0.702  0.497- 527 1.94 540 1.95 441 2.71 433 2.76 459 2.86
  73  0.916  0.650  0.454- 505 1.98 540 2.10 400 2.77 453 2.79 441 2.81 459 2.88
  74  0.583  0.950  0.361- 553 1.97 475 2.79 485 2.79
  75  0.916  0.950  0.454- 562 1.99 539 2.10 431 2.78 445 2.79 399 2.88 414 2.89
  76  0.750  0.450  0.361- 572 1.97 447 2.79 409 2.79
  77  0.417  0.850  0.361- 491 1.97 452 2.79 475 2.79
  78  0.417  0.450  0.361- 556 1.97 449 2.79 476 2.79
  79  0.417  0.650  0.361- 518 1.97 430 2.79 408 2.79
  80  0.500  0.800  0.407- 506 1.97 491 1.97 475 2.79 408 2.79 477 2.91
  81  0.000  0.200  0.407- 488 1.97 574 1.97 425 2.79 470 2.79 415 2.97
  82  0.583  0.050  0.642- 524 1.79 467 2.50 434 2.50
  83  0.747  0.847  0.546- 515 1.83 534 2.03 479 2.66 429 2.78 456 3.10 402 3.33
  84  0.584  0.650  0.455- 560 2.00 554 2.00 466 2.78 432 2.79 439 2.80 408 2.83
  85  0.500  0.600  0.407- 554 1.97 518 1.97 408 2.79 476 2.79 466 2.80
  86  0.083  0.350  0.361- 521 1.97 448 2.79 425 2.79
  87  0.667  0.800  0.407- 551 1.97 506 1.97 485 2.79 432 2.79 479 2.86
  88  0.250  0.150  0.361- 559 1.97 418 2.79 426 2.79
  89  0.917  0.150  0.361- 488 1.97 470 2.79 420 2.79
  90  0.584  0.050  0.454- 553 1.98 499 2.11 417 2.80 419 2.81 423 2.83 421 2.85
  91  0.250  0.049  0.454- 547 1.97 514 2.11 426 2.81 418 2.82 422 2.83 424 2.86
  92  0.750  0.050  0.454- 546 1.98 500 2.11 417 2.79 420 2.79 423 2.86 399 2.88
  93  0.416  0.049  0.454- 545 1.97 494 2.12 426 2.81 422 2.81 419 2.82 421 2.85
  94  0.083  0.050  0.454- 544 1.97 550 2.11 470 2.80 418 2.80 424 2.85 414 2.87
  95  0.833  0.000  0.407- 546 1.97 562 1.97 420 2.79 431 2.79 399 2.97
  96  0.500  0.100  0.499- 494 1.98 499 1.99 419 2.75 444 2.77 421 2.78
  97  1.000  0.599  0.594- 492 1.95 513 1.96 459 2.62 405 2.91 473 2.95
  98  0.084  0.151  0.546- 550 1.85 563 2.19 486 2.69 415 2.69 398 3.28 401 3.28
  99  0.750  0.250  0.361- 487 1.97 410 2.79 472 2.79
 100  0.250  0.250  0.361- 559 1.97 448 2.79 474 2.79
 101  0.167  0.200  0.407- 559 1.97 574 1.97 448 2.79 418 2.79 486 2.97
 102  0.750  0.650  0.361- 512 1.97 432 2.79 453 2.79
 103  0.583  0.650  0.361- 554 1.97 408 2.79 432 2.79
 104  0.500  0.400  0.407- 555 1.97 556 1.97 476 2.79 481 2.79 460 2.86
 105  0.917  0.450  0.361- 504 1.97 406 2.79 409 2.79
 106  0.167  0.400  0.407- 519 1.97 521 1.97 397 2.79 448 2.79 438 2.98
 107  0.584  0.452  0.454- 489 1.94 555 2.03 447 2.74 476 2.78 465 2.87 460 2.88
 108  0.333  0.400  0.407- 556 1.97 519 1.97 449 2.79 474 2.79 437 2.88
 109  0.666  0.302  0.500- 523 1.97 549 2.00 465 2.71 410 2.78 462 2.87 435 3.22
 110  0.583  0.450  0.361- 555 1.97 476 2.79 447 2.79
 111  0.000  0.000  0.407- 562 1.97 544 1.97 470 2.79 445 2.79 414 2.96
 112  0.417  0.250  0.361- 511 1.97 474 2.79 481 2.79
 113  0.084  0.050  0.547- 550 1.85 497 2.20 424 2.68 414 2.71 401 3.24 398 3.26
 114  0.916  0.151  0.546- 498 1.85 564 2.19 454 2.68 415 2.70 469 3.25 398 3.27
 115  0.583  0.150  0.547- 499 1.85 568 2.19 444 2.70 462 2.71 467 3.22 434 3.23
 116  0.083  0.650  0.361- 517 1.97 457 2.79 441 2.79
 117  0.250  0.150  0.547- 514 1.85 533 2.18 446 2.68 486 2.70 401 3.26 468 3.27
 118  0.583  0.848  0.456- 506 1.97 558 2.11 479 2.73 477 2.73 475 2.85 485 2.86
 119  0.252  0.647  0.544- 510 1.91 537 2.05 450 2.63 403 2.78 483 2.87 443 3.18
 120  0.499  0.403  0.591- 526 1.99 575 2.05 428 2.62 460 2.67 404 2.95
 121  0.250  0.650  0.361- 557 1.97 457 2.79 430 2.79
 122  0.916  0.250  0.454- 488 1.98 509 2.08 472 2.80 425 2.81 454 2.86 415 2.88
 123  0.000  0.300  0.498- 509 1.96 571 1.98 425 2.74 415 2.79 471 2.80
 124  0.747  0.647  0.545- 531 1.96 520 1.96 439 2.63 400 2.80 411 2.82 480 3.20
 125  0.750  0.150  0.547- 500 1.85 576 2.21 462 2.69 454 2.72 469 3.22 467 3.23
 126  0.917  0.250  0.361- 488 1.97 425 2.79 472 2.79
 127  0.750  0.850  0.454- 551 1.97 534 2.08 485 2.79 431 2.80 479 2.82 429 2.85
 128  0.749  0.550  0.456- 552 1.98 512 2.01 439 2.71 447 2.81 409 2.84 400 2.86
 129  0.083  0.450  0.361- 521 1.97 406 2.79 397 2.79
 130  0.833  0.400  0.407- 572 1.97 504 1.97 409 2.79 472 2.79 478 2.87
 131  0.417  0.250  0.455- 573 1.94 511 2.01 481 2.80 474 2.81 444 2.87 446 2.89
 132  0.500  0.200  0.407- 525 1.97 511 1.97 481 2.79 419 2.79 444 2.96
 133  0.667  0.600  0.407- 512 1.97 554 1.97 432 2.79 447 2.79 439 2.81
 134  0.084  0.650  0.454- 517 1.99 527 2.09 403 2.75 457 2.79 441 2.81 459 2.90
 135  0.084  0.850  0.454- 501 1.98 538 2.11 464 2.77 436 2.80 445 2.81 433 2.88
 136  0.084  0.450  0.454- 521 1.98 548 2.10 397 2.80 406 2.81 471 2.86 438 2.88
 137  0.750  0.850  0.361- 551 1.97 485 2.79 431 2.79
 138  0.915  0.450  0.547- 516 1.84 532 2.22 478 2.71 471 2.75 416 2.85 405 3.36
 139  0.417  0.350  0.454- 556 1.98 573 2.07 481 2.80 460 2.81 474 2.81 437 2.85
 140  0.417  0.151  0.546- 494 1.85 535 2.19 444 2.68 446 2.69 468 3.27 434 3.28
 141  0.833  0.200  0.407- 487 1.97 488 1.97 472 2.79 420 2.79 454 2.96
 142  1.000  0.499  0.498- 516 1.94 548 1.96 406 2.74 471 2.78 459 2.82
 143  0.252  0.652  0.454- 510 1.99 557 2.02 430 2.73 450 2.77 457 2.80 403 2.93
 144  0.583  0.353  0.456- 555 1.97 523 2.10 460 2.69 465 2.75 481 2.86 410 2.88
 145  0.250  0.250  0.454- 559 2.00 508 2.09 474 2.80 448 2.80 446 2.87 486 2.87
 146  0.252  0.452  0.454- 522 1.96 519 2.01 449 2.74 437 2.80 397 2.80 438 2.96
 147  0.750  0.150  0.361- 487 1.97 417 2.79 420 2.79
 148  0.583  0.850  0.361- 506 1.97 475 2.79 485 2.79
 149  0.251  0.848  0.455- 507 1.98 528 2.07 451 2.75 464 2.82 452 2.83 436 2.85
 150  0.417  0.150  0.361- 511 1.97 426 2.79 419 2.79
 151  0.083  0.150  0.361- 574 1.97 470 2.79 418 2.79
 152  0.083  0.750  0.361- 501 1.97 457 2.79 441 2.79
 153  0.750  0.050  0.641- 496 1.79 469 2.50 467 2.51
 154  0.251  0.251  0.548- 508 1.84 533 2.23 446 2.71 486 2.75 412 3.00 484 3.27
 155  0.083  0.850  0.361- 501 1.97 445 2.79 436 2.79
 156  0.417  0.050  0.642- 495 1.79 468 2.50 434 2.51
 157  0.917  0.050  0.454- 562 1.97 498 2.11 420 2.80 470 2.80 399 2.86 414 2.87
 158  0.916  0.050  0.640- 493 1.79 398 2.50 469 2.50
 159  0.083  0.149  0.640- 563 1.79 398 2.49 401 2.51
 160  0.666  0.100  0.499- 499 1.98 500 1.99 417 2.76 462 2.76 423 2.76
 161  0.167  0.100  0.499- 514 1.98 550 1.98 418 2.75 424 2.77 486 2.81
 162  0.833  0.600  0.407- 512 1.97 505 1.97 409 2.79 453 2.79 400 2.88
 163  0.333  0.100  0.499- 494 1.99 514 1.99 422 2.75 426 2.76 446 2.78
 164  0.000  0.100  0.499- 498 1.98 550 1.99 470 2.76 414 2.80 415 2.80
 165  0.917  0.150  0.454- 488 1.98 498 2.10 420 2.79 470 2.79 454 2.87 415 2.89
 166  0.084  0.050  0.640- 497 1.79 401 2.49 398 2.51
 167  0.083  0.150  0.454- 574 1.98 550 2.10 418 2.79 470 2.79 415 2.88 486 2.89
 168  0.417  0.150  0.454- 511 1.97 494 2.10 426 2.80 419 2.80 444 2.86 446 2.87
 169  0.414  0.849  0.548- 529 1.94 503 1.98 451 2.71 477 2.76 461 2.92 442 3.09
 170  0.167  0.800  0.407- 507 1.97 501 1.97 436 2.79 457 2.79 464 2.89
 171  0.582  0.348  0.551- 575 1.96 523 1.97 460 2.78 465 2.86 404 2.88 435 2.95
 172  0.000  0.802  0.593- 541 1.96 542 1.96 433 2.58 407 2.88 473 3.05
 173  0.334  0.200  0.592- 535 2.00 533 2.01 446 2.59 412 2.76 468 2.93
 174  1.000  0.200  0.592- 564 1.99 563 2.01 415 2.59 455 2.87 398 2.92
 175  0.001  0.398  0.592- 532 1.95 569 1.99 471 2.59 455 2.92 405 2.97
 176  0.084  0.950  0.546- 538 1.84 497 2.19 424 2.68 414 2.71 463 3.23 407 3.36
 177  0.420  0.652  0.556- 543 1.90 536 2.14 427 2.66 483 2.70 466 2.93 450 3.04
 178  0.084  0.348  0.642- 569 1.79 484 2.49 455 2.50
 179  0.666  0.000  0.592- 524 2.00 496 2.01 423 2.59 456 2.72 467 2.91
 180  0.334  1.000  0.592- 495 2.01 502 2.02 422 2.59 461 2.73 468 2.88
 181  1.000  0.999  0.592- 497 2.00 493 2.00 414 2.58 398 2.91 407 2.93
 182  0.833  0.999  0.592- 496 1.99 493 2.02 399 2.58 402 2.84 469 2.93
 183  0.167  0.999  0.592- 502 1.99 497 2.02 424 2.58 463 2.87 401 2.90
 184  0.500  0.000  0.591- 495 1.99 524 2.00 421 2.57 442 2.82 434 2.91
 185  0.750  0.151  0.454- 487 1.98 500 2.10 417 2.81 420 2.81 462 2.85 454 2.86
 186  0.916  0.050  0.547- 498 1.85 493 2.20 399 2.68 414 2.71 469 3.24 398 3.25
 187  0.583  0.151  0.455- 525 1.97 499 2.11 419 2.82 417 2.82 444 2.83 462 2.83
 188  0.916  0.850  0.454- 561 1.98 539 2.11 429 2.75 431 2.79 445 2.81 433 2.88
 189  0.250  0.150  0.454- 559 1.98 514 2.10 426 2.79 418 2.79 446 2.86 486 2.89
 190  0.750  0.049  0.546- 500 1.86 496 2.20 423 2.68 399 2.69 469 3.24 467 3.26
 191  0.423  0.750  0.547- 536 1.94 529 2.01 477 2.67 427 2.77 451 2.87 483 2.93
 192  0.423  0.555  0.546- 543 1.87 490 2.07 466 2.62 450 2.85 428 2.91 482 3.11
 193  0.752  0.549  0.549- 552 1.94 531 2.02 440 2.74 400 2.80 439 2.82 416 3.00
 194  0.250  0.850  0.361- 507 1.97 436 2.79 452 2.79
 195  0.167  0.600  0.407- 557 1.97 517 1.97 397 2.79 457 2.79 403 2.85
 196  0.417  0.548  0.454- 490 1.96 518 2.02 476 2.76 449 2.78 466 2.82 450 2.86
 197  0.417  0.050  0.547- 494 1.86 495 2.21 422 2.69 421 2.71 468 3.22 434 3.24
 198  0.749  0.350  0.547- 570 1.93 549 1.95 465 2.71 478 2.79 435 3.04 413 3.14
 199  0.085  0.750  0.454- 501 1.97 527 2.08 457 2.77 464 2.80 441 2.81 433 2.92
 200  0.083  0.550  0.361- 517 1.97 406 2.79 397 2.79
 201  0.253  0.850  0.551- 565 1.82 528 2.08 451 2.78 461 2.87 464 2.87 463 3.20
 202  0.833  0.800  0.407- 551 1.97 561 1.97 431 2.79 453 2.79 429 2.87
 203  0.250  0.450  0.361- 519 1.97 397 2.79 449 2.79
 204  0.084  0.250  0.454- 574 1.99 571 2.10 448 2.79 425 2.82 486 2.86 415 2.88
 205  0.083  0.950  0.361- 544 1.97 445 2.79 436 2.79
 206  0.416  0.647  0.458- 536 1.98 518 2.02 466 2.73 450 2.73 430 2.89 408 2.91
 207  0.667  0.000  0.407- 546 1.97 553 1.97 417 2.79 485 2.79 423 2.96
 208  0.833  0.201  0.592- 576 2.00 564 2.02 454 2.58 413 2.80 469 2.92
 209  0.748  0.948  0.640- 496 1.80 402 2.49 456 2.54
 210  0.583  0.150  0.361- 525 1.97 419 2.79 417 2.79
 211  0.250  0.050  0.547- 514 1.86 502 2.21 422 2.70 424 2.71 401 3.22 468 3.24
 212  0.583  0.050  0.547- 499 1.85 524 2.18 423 2.70 421 2.70 467 3.23 434 3.25
 213  0.750  0.150  0.642- 576 1.80 469 2.51 467 2.52
 214  0.251  0.148  0.641- 533 1.79 468 2.49 401 2.50
 215  0.916  0.150  0.641- 564 1.79 469 2.50 398 2.51
 216  0.583  0.150  0.643- 568 1.80 434 2.51 467 2.53
 217  0.417  0.150  0.641- 535 1.79 434 2.50 468 2.52
 218  0.417  0.350  0.361- 556 1.97 474 2.79 481 2.79
 219  0.500  0.000  0.407- 553 1.97 545 1.97 419 2.79 475 2.79 421 2.96
 220  0.416  0.449  0.457- 490 1.91 556 2.04 437 2.81 460 2.82 449 2.84 476 2.88
 221  0.333  0.000  0.407- 545 1.97 547 1.97 426 2.79 452 2.79 422 2.95
 222  0.917  0.050  0.361- 562 1.97 470 2.79 420 2.79
 223  0.583  0.050  0.361- 553 1.97 419 2.79 417 2.79
 224  0.250  0.050  0.361- 547 1.97 418 2.79 426 2.79
 225  0.750  0.050  0.361- 546 1.97 417 2.79 420 2.79
 226  0.417  0.050  0.361- 545 1.97 426 2.79 419 2.79
 227  0.083  0.050  0.361- 544 1.97 470 2.79 418 2.79
 228  0.833  0.100  0.499- 500 1.98 498 2.00 420 2.75 454 2.78 399 2.78
 229  0.084  0.350  0.454- 521 1.98 571 2.12 448 2.78 425 2.79 438 2.86 471 2.87
 230  0.167  0.000  0.407- 547 1.97 544 1.97 418 2.79 436 2.79 424 2.97
 231  0.084  0.949  0.454- 544 1.99 538 2.11 436 2.78 445 2.79 424 2.88 414 2.89
 232  0.335  0.793  0.591- 529 1.93 565 2.05 483 2.61 451 2.68 461 3.09
 233  0.333  0.597  0.591- 543 1.85 537 2.15 450 2.71 482 2.74 483 2.87
 234  0.497  0.604  0.609- 543 2.09   7 2.15 566 2.25 427 2.72 428 3.02 466 3.26
 235  0.252  0.950  0.545- 528 1.84 502 2.22 422 2.70 424 2.74 461 2.92 463 3.29
 236  0.579  0.748  0.548- 560 1.92 530 2.13 427 2.65 477 2.72 411 2.80 479 2.86
 237  0.916  0.550  0.546- 516 1.85 492 2.23 400 2.67 459 2.70 416 2.95 405 3.38
 238  0.917  0.351  0.545- 509 1.85 532 2.16 478 2.67 471 2.68 413 3.18 455 3.34
 239  0.914  0.751  0.546- 540 1.85 542 2.23 429 2.67 433 2.73 480 2.83 473 3.46
 240  0.084  0.449  0.641- 569 1.80 405 2.49 458 2.51
 241  0.666  0.899  0.499- 558 1.97 534 2.00 479 2.73 485 2.75 423 2.86 456 3.22
 242  0.087  0.650  0.640- 513 1.80 473 2.50 443 2.53
 243  0.583  0.449  0.546- 489 1.91 575 2.08 460 2.72 465 2.76 428 2.77 440 2.92
 244  0.248  0.549  0.549- 537 1.94 522 1.98 482 2.66 450 2.81 403 2.84 458 3.04
 245  0.168  0.398  0.593- 567 1.94 569 2.04 438 2.61 458 2.79 484 2.90
 246  0.413  0.850  0.640- 529 1.94  33 2.07 461 2.62 442 2.67
 247  0.167  0.200  0.592- 533 1.99 563 2.00 486 2.59 484 2.90 401 2.93
 248  0.667  0.596  0.591- 566 1.81 531 2.13 439 2.73 440 2.73 411 2.94
 249  0.665  0.400  0.590- 575 1.89 570 2.10 465 2.62 440 2.75 435 2.87
 250  0.665  0.793  0.591- 530 1.95 515 2.07 411 2.58 479 2.67 456 3.11
 251  0.666  0.200  0.592- 568 2.00 576 2.01 462 2.59 435 2.78 467 2.89
 252  0.914  0.851  0.641- 542 1.79 402 2.49 407 2.51
 253  0.917  0.850  0.361- 561 1.97 445 2.79 431 2.79
 254  0.416  0.353  0.547- 526 1.84 573 2.05 460 2.74 437 2.74 404 3.08 412 3.18
 255  0.914  0.650  0.641- 492 1.79 473 2.49 480 2.53
 256  0.168  0.700  0.500- 510 1.90 527 2.05 403 2.79 457 2.80 464 2.83 443 3.04
 257  0.500  0.898  0.501- 503 1.98 558 1.99 477 2.68 475 2.81 421 2.87 442 3.23
 258  0.915  0.348  0.640- 532 1.79 413 2.51 455 2.52
 259  0.417  0.750  0.361- 491 1.97 430 2.79 408 2.79
 260  0.250  0.351  0.454- 519 1.97 508 2.12 437 2.74 474 2.82 448 2.82 438 2.85
 261  0.250  0.750  0.361- 507 1.97 457 2.79 430 2.79
 262  0.917  0.950  0.361- 562 1.97 445 2.79 431 2.79
 263  0.250  0.950  0.361- 547 1.97 436 2.79 452 2.79
 264  0.583  0.350  0.361- 555 1.97 481 2.79 410 2.79
 265  0.749  0.252  0.640- 576 1.80 413 2.52 435 2.54
 266  0.754  0.446  0.645- 570 2.04  15 2.05 416 2.72 440 2.84
 267  0.417  0.947  0.639- 495 1.81 442 2.53 461 2.58
 268  0.583  0.252  0.639- 568 1.81 435 2.52 404 2.52
 269  0.749  0.751  0.457- 520 1.96 551 2.04 479 2.79 432 2.84 429 2.85 453 2.87
 270  0.086  0.751  0.546- 527 1.86 541 2.23 464 2.66 433 2.73 443 2.78 473 3.47
 271  0.754  0.547  0.638-  16 2.00 531 2.02 416 2.61 440 2.70
 272  0.335  0.404  0.593- 526 1.90 567 2.07 482 2.65 437 2.72 412 3.05
 273  0.087  0.549  0.640- 513 1.79 458 2.51 405 2.52
 274  0.250  0.048  0.642- 502 1.79 401 2.51 468 2.52
 275  0.252  0.946  0.637- 502 1.81 463 2.47 461 2.51
 276  0.917  0.550  0.361- 505 1.97 406 2.79 409 2.79
 277  0.917  0.350  0.361- 504 1.97 425 2.79 472 2.79
 278  0.086  0.451  0.547- 548 1.84 569 2.27 438 2.69 471 2.75 458 2.88 405 3.35
 279  0.083  0.550  0.453- 517 1.97 548 2.11 406 2.78 403 2.78 397 2.79 459 2.91
 280  0.583  0.750  0.361- 506 1.97 408 2.79 432 2.79
 281  0.583  0.550  0.361- 554 1.97 476 2.79 447 2.79
 282  0.085  0.850  0.547- 538 1.85 541 2.18 464 2.65 433 2.72 463 3.19 407 3.36
 283  0.416  0.948  0.547- 503 1.84 495 2.25 422 2.74 421 2.76 461 2.86 442 3.03
 284  0.500  0.301  0.500- 523 1.98 573 1.99 460 2.70 481 2.80 444 2.86 404 3.17
 285  0.000  0.800  0.407- 561 1.97 501 1.97 445 2.79 441 2.79 433 2.99
 286  0.417  0.252  0.547- 573 1.84 535 2.24 446 2.77 444 2.77 404 2.95 412 3.04
 287  0.577  0.548  0.552- 566 1.94 489 2.05 428 2.62 466 2.77 440 2.95 439 3.03
 288  0.416  0.455  0.553- 526 1.96 490 1.98 428 2.68 482 2.74 460 2.97 437 2.97
 289  0.581  0.648  0.549- 566 1.88 560 2.09 427 2.71 466 2.73 411 2.84 439 2.86
 290  0.749  0.452  0.550- 570 1.97 552 1.97 440 2.60 465 2.83 478 2.90 416 2.93
 291  0.240  0.553  0.642- 537 1.89   5 2.12 458 2.62 482 2.95
 292  0.583  0.949  0.454- 553 2.01 558 2.03 475 2.76 485 2.79 421 2.89 423 2.91
 293  0.916  0.850  0.546- 539 1.85 542 2.17 429 2.67 433 2.70 402 3.24 407 3.35
 294  0.748  0.948  0.547- 534 1.84 496 2.23 423 2.75 399 2.79 456 2.92 402 3.20
 295  0.171  0.800  0.595- 565 1.86 541 2.13 464 2.74 443 2.76 463 2.87
 296  0.833  0.602  0.590- 531 1.83 492 2.06 400 2.60 480 2.81 416 2.96
 297  0.084  0.248  0.642- 563 1.80 455 2.50 484 2.51
 298  0.084  0.750  0.640- 541 1.79 473 2.48 443 2.51
 299  0.084  0.950  0.641- 497 1.80 463 2.49 407 2.49
 300  0.416  0.534  0.630-  32 2.03 543 2.08 428 2.54 482 2.60
 301  0.418  0.350  0.640- 526 1.99  24 2.01 404 2.64 412 2.65
 302  0.501  0.805  0.593- 530 1.99 529 2.01 477 2.66 442 2.72 427 2.94
 303  0.249  0.451  0.546- 522 1.85 567 2.29 482 2.66 438 2.72 437 2.74 458 3.03
 304  0.081  0.652  0.547- 527 1.84 513 2.23 459 2.69 403 2.77 443 2.85 473 3.34
 305  0.583  0.250  0.546- 523 1.84 568 2.24 444 2.71 462 2.71 404 2.97 435 3.01
 306  0.417  0.948  0.454- 503 1.97 545 2.02 475 2.76 452 2.78 421 2.90 422 2.92
 307  0.083  0.250  0.547- 571 1.84 563 2.20 415 2.71 486 2.73 455 3.23 484 3.29
 308  0.584  0.951  0.546- 558 1.84 524 2.23 423 2.69 421 2.71 456 2.95 442 3.07
 309  0.418  0.252  0.639- 535 1.81 412 2.52 404 2.55
 310  0.916  0.950  0.546- 539 1.84 493 2.19 399 2.68 414 2.71 402 3.22 407 3.36
 311  0.751  0.745  0.553- 515 1.96 520 1.97 411 2.65 480 2.86 429 2.96 479 2.98
 312  0.249  0.746  0.552- 565 1.97 510 1.97 483 2.72 443 2.87 464 2.92 451 2.94
 313  0.912  0.548  0.640- 492 1.80 416 2.51 405 2.52
 314  0.252  0.750  0.456- 510 1.99 507 2.03 451 2.77 430 2.81 457 2.86 464 2.88
 315  0.427  0.444  0.657-  32 2.12  24 2.14 526 2.35 428 2.95 482 3.44
 316  0.247  0.659  0.629- 537 2.00  27 2.03 443 2.53 483 2.55
 317  0.251  0.249  0.642- 533 1.80 484 2.49 412 2.51
 318  0.917  0.650  0.361- 505 1.97 441 2.79 453 2.79
 319  0.500  0.499  0.500- 490 1.97 489 2.00 476 2.80 460 2.80 466 2.82 428 2.87
 320  0.500  0.697  0.500- 536 1.98 560 1.98 466 2.70 408 2.79 427 2.83 477 2.95
 321  0.832  0.699  0.501- 520 1.89 540 2.04 400 2.76 453 2.81 429 2.86 480 3.10
 322  0.253  0.351  0.547- 508 1.88 567 2.11 437 2.63 438 2.74 412 3.09 484 3.34
 323  0.833  0.499  0.500- 552 1.89 516 2.04 409 2.78 478 2.81 400 2.81 416 3.15
 324  0.915  0.448  0.640- 532 1.80 405 2.51 416 2.52
 325  0.167  0.501  0.498- 522 1.90 548 2.02 397 2.72 403 2.76 438 2.86 458 3.30
 326  0.417  0.950  0.361- 545 1.97 452 2.79 475 2.79
 327  0.251  0.948  0.454- 528 1.93 547 2.01 452 2.76 436 2.78 422 2.92 424 2.94
 328  0.665  0.700  0.503- 560 1.93 520 2.06 411 2.70 439 2.80 479 2.82 432 2.88
 329  0.417  0.550  0.361- 518 1.97 449 2.79 476 2.79
 330  0.250  0.350  0.361- 519 1.97 448 2.79 474 2.79
 331  0.750  0.950  0.361- 546 1.97 485 2.79 431 2.79
 332  0.750  0.750  0.361- 551 1.97 432 2.79 453 2.79
 333  0.750  0.351  0.454- 572 1.97 549 2.10 465 2.78 472 2.81 410 2.81 478 2.83
 334  0.750  0.550  0.361- 512 1.97 447 2.79 409 2.79
 335  0.588  0.456  0.634- 575 1.98  10 2.04 428 2.57 440 2.60
 336  0.083  0.551  0.545- 548 1.85 513 2.21 459 2.66 403 2.68 458 3.07 405 3.38
 337  0.590  0.848  0.646- 530 1.94  37 2.09 456 2.65 442 2.83
 338  0.917  0.750  0.361- 561 1.97 441 2.79 453 2.79
 339  0.833  0.900  0.499- 534 1.94 539 2.02 429 2.75 431 2.77 399 2.83
 340  0.000  0.400  0.407- 504 1.97 521 1.97 406 2.79 425 2.79 471 2.97
 341  0.000  0.600  0.407- 505 1.97 517 1.97 406 2.79 441 2.79 459 2.99
 342  0.748  0.651  0.454- 520 1.99 512 2.01 439 2.75 432 2.76 453 2.81 400 2.92
 343  0.333  0.200  0.407- 511 1.97 559 1.97 474 2.79 426 2.79 446 2.97
 344  0.333  0.600  0.407- 518 1.97 557 1.97 430 2.79 449 2.79 450 2.82
 345  0.251  0.552  0.455- 557 1.98 522 2.07 450 2.69 449 2.82 403 2.84 397 2.86
 346  0.334  0.898  0.499- 503 1.97 528 2.00 451 2.72 452 2.77 422 2.89 461 3.09
 347  0.667  0.200  0.407- 487 1.97 525 1.97 410 2.79 417 2.79 462 2.96
 348  0.000  0.900  0.499- 538 1.97 539 1.97 445 2.76 433 2.78 414 2.80
 349  0.590  0.652  0.639- 566 1.98  18 2.08 411 2.63 427 2.78
 350  0.500  0.200  0.592- 568 2.00 535 2.00 444 2.58 404 2.76 434 2.91
 351  0.833  0.300  0.500- 549 1.95 509 2.02 478 2.76 472 2.79 454 2.81 413 3.37
 352  0.916  0.450  0.454- 504 1.98 516 2.09 478 2.79 409 2.79 406 2.82 471 2.90
 353  0.754  0.755  0.656-  47 2.06  23 2.11 515 2.36 480 2.95 411 3.18
 354  0.915  0.250  0.641- 564 1.80 455 2.50 413 2.52
 355  0.417  0.747  0.454- 536 1.90 491 2.05 408 2.76 430 2.77 451 2.85 477 2.92
 356  0.262  0.840  0.646- 565 1.96   2 2.07 461 2.77 463 2.92
 357  0.750  0.350  0.361- 572 1.97 410 2.79 472 2.79
 358  0.741  0.848  0.640- 515 1.98  47 2.04 456 2.58 402 2.69
 359  0.085  0.850  0.642- 541 1.79 463 2.47 407 2.51
 360  0.753  0.655  0.636- 531 1.92  23 2.09 480 2.61 411 2.73
 361  0.417  0.847  0.455- 491 1.96 503 2.09 451 2.74 477 2.77 475 2.85 452 2.87
 362  0.750  0.251  0.454- 549 1.99 487 2.00 410 2.79 472 2.80 462 2.89 454 2.89
 363  0.583  0.252  0.454- 523 1.98 525 2.02 481 2.76 410 2.77 444 2.91 462 2.92
 364  0.583  0.749  0.455- 560 1.90 506 2.03 408 2.79 432 2.80 479 2.83 477 2.86
 365  0.583  0.250  0.361- 525 1.97 481 2.79 410 2.79
 366  0.743  0.352  0.641- 570 1.95  15 2.03 435 2.57 413 2.75
 367  0.832  0.397  0.590- 570 1.86 532 2.10 478 2.63 416 2.83 413 2.83
 368  0.830  0.801  0.592- 515 1.86 542 2.11 429 2.70 480 2.80 402 2.90
 369  0.420  0.741  0.634-  48 2.03 529 2.04 427 2.57 483 2.62
 370  0.168  0.899  0.499- 528 1.93 538 2.02 464 2.74 436 2.77 424 2.84
 371  0.916  0.550  0.454- 505 1.98 516 2.11 400 2.77 409 2.78 406 2.80 459 2.90
 372  0.748  0.450  0.456- 552 1.99 572 2.03 465 2.77 447 2.79 409 2.85 478 2.89
 373  0.167  0.300  0.500- 508 1.95 571 2.00 438 2.75 448 2.79 486 2.80
 374  0.749  0.250  0.546- 549 1.84 576 2.23 462 2.71 454 2.75 435 2.99 413 3.12
 375  0.916  0.750  0.639- 542 1.80 473 2.48 480 2.49
 376  0.916  0.950  0.641- 493 1.80 402 2.49 407 2.49
 377  0.916  0.350  0.453- 504 1.98 509 2.10 478 2.77 472 2.77 425 2.79 471 2.91
 378  0.255  0.742  0.663-   2 2.07  27 2.11 483 3.00 443 3.13
 379  0.250  0.550  0.361- 557 1.97 397 2.79 449 2.79
 380  0.583  0.551  0.457- 554 2.01 489 2.01 466 2.70 439 2.78 476 2.85 447 2.87
 381  0.397  0.640  0.652-  21 2.11  39 2.11 543 2.16 483 2.81 427 3.48
 382  0.915  0.750  0.454- 561 1.98 540 2.09 453 2.76 429 2.77 441 2.82 433 2.93
 383  0.666  0.502  0.504- 489 1.94 552 2.07 439 2.72 440 2.73 465 2.90 447 2.90
 384  0.334  0.502  0.503- 490 1.95 522 2.08 482 2.70 450 2.70 449 2.88 437 2.89
 385  0.336  0.700  0.504- 536 1.93 510 2.08 483 2.74 451 2.80 450 2.83 430 2.91
 386  0.917  0.251  0.547- 509 1.85 564 2.20 454 2.73 415 2.73 413 3.08 455 3.26
 387  0.749  0.950  0.455- 534 1.94 546 2.00 485 2.80 431 2.82 423 2.87 399 2.89
 388  0.083  0.250  0.361- 574 1.97 448 2.79 425 2.79
 389  0.577  0.748  0.640- 530 1.87  42 2.11 427 2.61 411 2.86
 390  0.165  0.602  0.587- 537 1.84 513 2.05 403 2.56 443 2.81 458 3.01
 391  0.249  0.453  0.641- 567 1.94  30 2.06 458 2.58 482 2.66
 392  0.084  0.351  0.546- 571 1.85 569 2.17 438 2.65 471 2.67 455 3.32 484 3.35
 393  0.582  0.948  0.638- 524 1.80 442 2.49 456 2.51
 394  0.581  0.353  0.645- 575 1.92  14 2.10 404 2.70 435 2.77
 395  0.580  0.551  0.646-   7 2.11 566 2.12  40 2.17 428 2.80 440 3.06
 396  0.254  0.349  0.641- 567 1.74 412 2.51 484 2.55
 397  0.167  0.500  0.407- 325 2.72 279 2.79 379 2.79 200 2.79 203 2.79 129 2.79 195 2.79 106 2.79
                           136 2.80 146 2.80 345 2.86 519 3.42 557 3.42 521 3.42 517 3.42 522 3.44
 398  1.000  0.099  0.619- 159 2.49 158 2.50 166 2.51 215 2.51 181 2.91 174 2.92 186 3.25 113 3.26
                           114 3.27  98 3.28 493 3.44 564 3.45 497 3.45 563 3.45 498 3.91 550 3.92
 399  0.834  0.001  0.506- 182 2.58 186 2.68 310 2.68 190 2.69 228 2.78 294 2.79 339 2.83 157 2.86
                            92 2.88  75 2.88 387 2.89  95 2.97 534 3.37 500 3.40 498 3.41 539 3.43
 400  0.836  0.600  0.503- 296 2.60 237 2.67  69 2.74 321 2.76  73 2.77 371 2.77 124 2.80 193 2.80
                           323 2.81 128 2.86 162 2.88 342 2.92 531 3.34 552 3.40 540 3.41 516 3.41
 401  0.167  0.099  0.619- 166 2.49 214 2.50 159 2.51 274 2.51 183 2.90 247 2.93 211 3.22 113 3.24
                           117 3.26  98 3.28 502 3.44 533 3.44 497 3.44 563 3.46 514 3.91 550 3.92
 402  0.833  0.901  0.618- 376 2.49 252 2.49 209 2.49 358 2.69 182 2.84 368 2.90 294 3.20 310 3.22
                           293 3.24  83 3.33 496 3.42 493 3.42 515 3.46 542 3.46 539 3.89 407 3.96
 403  0.164  0.600  0.502- 390 2.56 336 2.68 134 2.75 325 2.76 304 2.77 279 2.78 119 2.78 256 2.79
                           345 2.84 244 2.84 195 2.85 143 2.93 537 3.33 548 3.39 510 3.42 527 3.42
 404  0.501  0.298  0.606- 268 2.52 309 2.55 301 2.64 394 2.70 350 2.76 171 2.88 286 2.95 120 2.95
                           305 2.97 254 3.08 284 3.17 568 3.36 535 3.39 575 3.44 526 3.49 523 3.62
 405  1.000  0.500  0.624- 240 2.49 324 2.51 273 2.52 313 2.52  97 2.91 175 2.97 278 3.35 138 3.36
                           237 3.38 336 3.38 492 3.45 513 3.45 532 3.48 569 3.51 416 3.89 458 3.89
 406  0.000  0.500  0.407- 142 2.74 279 2.78 276 2.79 105 2.79 200 2.79 129 2.79 340 2.79 341 2.79
                           371 2.80 136 2.81 352 2.82 504 3.42 505 3.42 517 3.42 521 3.42 516 3.54
 407  1.000  0.900  0.623- 376 2.49 299 2.49 252 2.51 359 2.51 172 2.88 181 2.93 293 3.35 310 3.36
                           176 3.36 282 3.36 542 3.41 541 3.42 497 3.46 493 3.46 463 3.94 402 3.96
 408  0.500  0.700  0.407- 355 2.76 364 2.79 103 2.79 280 2.79  79 2.79 259 2.79  85 2.79  80 2.79
                           320 2.79  84 2.83 206 2.91 554 3.42 506 3.42 518 3.42 491 3.42 536 3.44
 409  0.833  0.500  0.407- 323 2.78 371 2.78 334 2.79  76 2.79 276 2.79 105 2.79 130 2.79 162 2.79
                           352 2.79 128 2.84 372 2.85 512 3.42 572 3.42 504 3.42 505 3.42 552 3.44
 410  0.667  0.300  0.407- 363 2.77 109 2.78 362 2.79  99 2.79 357 2.79 365 2.79 264 2.79 347 2.79
                            68 2.79 333 2.81 144 2.88 487 3.42 572 3.42 525 3.42 555 3.42 523 3.52
 411  0.666  0.701  0.593- 250 2.58 349 2.63 311 2.65 328 2.70 360 2.73 236 2.80 124 2.82 289 2.84
                           389 2.86 248 2.94 353 3.18 566 3.32 530 3.38 560 3.39  23 3.39 520 3.40
 412  0.332  0.297  0.612- 317 2.51 396 2.51 309 2.52 301 2.65 173 2.76 154 3.00 286 3.04 272 3.05
                           322 3.09 254 3.18 533 3.36 535 3.38  71 3.40 567 3.42 526 3.51 508 3.72
 413  0.833  0.299  0.612- 258 2.51 354 2.52 265 2.52 366 2.75 208 2.80 367 2.83 386 3.08 374 3.12
                           198 3.14 238 3.18 351 3.37 576 3.39 564 3.40 570 3.41 532 3.45 509 3.77
 414  0.000  0.000  0.506- 181 2.58 176 2.71 310 2.71 113 2.71 186 2.71 164 2.80 348 2.80  94 2.87
                           157 2.87  75 2.89 231 2.89 111 2.96 539 3.40 538 3.42 498 3.42 550 3.42
 415  0.000  0.200  0.506- 174 2.59  98 2.69 114 2.70 307 2.71 386 2.73 123 2.79 164 2.80 204 2.88
                           167 2.88 122 2.88 165 2.89  81 2.97 509 3.40 571 3.41 498 3.41 550 3.41
 416  0.837  0.497  0.605- 313 2.51 324 2.52 271 2.61 266 2.72 367 2.83 138 2.85 290 2.93 237 2.95
                           296 2.96 193 3.00 323 3.15 532 3.39 570 3.41 492 3.44 531 3.51 516 3.53
 417  0.667  0.100  0.407- 160 2.76 225 2.79 147 2.79 223 2.79 210 2.79 207 2.79 347 2.79  92 2.79
                            90 2.80 185 2.81 187 2.82 546 3.42 487 3.42 553 3.42 525 3.42 500 3.57
 418  0.167  0.100  0.407- 161 2.75 224 2.79  88 2.79 227 2.79 151 2.79 230 2.79 101 2.79 189 2.79
                           167 2.79  94 2.80  91 2.82 547 3.42 559 3.42 544 3.42 574 3.42 514 3.57
 419  0.500  0.100  0.407-  96 2.75 223 2.79 210 2.79 226 2.79 150 2.79 219 2.79 132 2.79 168 2.80
                            90 2.81 187 2.82  93 2.82 553 3.42 525 3.42 545 3.42 511 3.42 494 3.57
 420  0.833  0.100  0.407- 228 2.75 225 2.79 147 2.79 222 2.79  89 2.79  95 2.79 141 2.79 165 2.79
                            92 2.79 157 2.80 185 2.81 546 3.42 487 3.42 562 3.42 488 3.42 500 3.57
 421  0.500  0.001  0.506- 184 2.57 212 2.70 197 2.71 308 2.71 283 2.76  96 2.78  93 2.85  90 2.85
                           257 2.87 292 2.89 306 2.90 219 2.96 499 3.40 503 3.40 494 3.41 558 3.42
 422  0.334  0.002  0.505- 180 2.59 197 2.69 235 2.70 211 2.70 283 2.74 163 2.75  93 2.81  91 2.83
                           346 2.89 306 2.92 327 2.92 221 2.95 494 3.38 514 3.39 528 3.41 503 3.42
 423  0.666  0.001  0.506- 179 2.59 190 2.68 308 2.69 212 2.70 294 2.75 160 2.76  90 2.83 241 2.86
                            92 2.86 387 2.87 292 2.91 207 2.96 499 3.39 500 3.40 534 3.40 558 3.41
 424  0.166  0.001  0.506- 183 2.58 113 2.68 176 2.68 211 2.71 235 2.74 161 2.77 370 2.84  94 2.85
                            91 2.86 231 2.88 327 2.94 230 2.97 528 3.36 550 3.39 514 3.41 538 3.44
 425  0.000  0.300  0.407- 123 2.74 126 2.79 277 2.79 388 2.79  86 2.79  81 2.79 340 2.79 377 2.79
                           229 2.79 122 2.81 204 2.82 488 3.42 504 3.42 574 3.42 521 3.42 509 3.54
 426  0.333  0.100  0.407- 163 2.76 226 2.79 150 2.79 224 2.79  88 2.79 221 2.79 343 2.79 189 2.79
                           168 2.80  93 2.81  91 2.81 545 3.42 511 3.42 547 3.42 559 3.42 514 3.57
 427  0.503  0.700  0.594- 369 2.57 389 2.61 236 2.65 177 2.66 289 2.71 234 2.72 191 2.77 349 2.78
                           320 2.83 302 2.94 530 3.39 560 3.39 566 3.44 536 3.47 381 3.48 529 3.49
 428  0.503  0.496  0.596- 300 2.54 335 2.57 120 2.62 287 2.62 288 2.68 243 2.77 395 2.80 319 2.87
                           192 2.91 315 2.95 234 3.02 575 3.37 489 3.41 526 3.43 490 3.51 543 3.56
 429  0.836  0.801  0.503- 293 2.67 239 2.67 368 2.70 339 2.75 188 2.75 382 2.77  83 2.78 269 2.85
                           127 2.85 321 2.86 202 2.87 311 2.96 515 3.30 539 3.37 540 3.43 561 3.44
 430  0.333  0.700  0.407- 143 2.73 355 2.77  79 2.79 259 2.79 121 2.79 261 2.79 344 2.79  70 2.79
                           314 2.81 206 2.89 385 2.91 518 3.42 491 3.42 557 3.42 507 3.42 536 3.45
 431  0.833  0.900  0.407- 339 2.77  75 2.78 137 2.79 331 2.79 253 2.79 262 2.79 202 2.79  95 2.79
                           188 2.79 127 2.80 387 2.82 551 3.42 561 3.42 546 3.42 562 3.42 534 3.47
 432  0.667  0.700  0.407- 342 2.76 102 2.79 332 2.79 103 2.79 280 2.79 133 2.79  87 2.79  84 2.79
                           364 2.80 269 2.84 328 2.88 512 3.42 551 3.42 554 3.42 506 3.42 560 3.43
 433  1.000  0.801  0.507- 172 2.58 293 2.70 282 2.72 239 2.73 270 2.73  72 2.76 348 2.78 135 2.88
                           188 2.88 199 2.92 382 2.93 285 2.99 527 3.39 538 3.39 540 3.40 539 3.40
 434  0.500  0.100  0.619- 217 2.50  82 2.50 216 2.51 156 2.51 184 2.91 350 2.91 115 3.23 197 3.24
                           212 3.25 140 3.28 524 3.43 535 3.43 568 3.43 495 3.44 494 3.92 499 3.92
 435  0.666  0.298  0.607- 268 2.52 265 2.54 366 2.57 394 2.77 251 2.78 249 2.87 171 2.95 374 2.99
                           305 3.01 198 3.04 109 3.22 568 3.38 575 3.38 576 3.38 570 3.51 523 3.65
 436  0.167  0.900  0.407- 370 2.77 231 2.78 327 2.78 194 2.79 155 2.79 263 2.79 205 2.79 170 2.79
                           230 2.79 135 2.80 149 2.85 507 3.42 501 3.42 547 3.42 544 3.42 528 3.46
 437  0.331  0.399  0.503- 322 2.63 272 2.72  71 2.73 303 2.74 260 2.74 254 2.74 146 2.80 220 2.81
                           139 2.85 108 2.88 384 2.89 288 2.97 526 3.33 508 3.36 522 3.41 519 3.45
 438  0.166  0.399  0.506- 245 2.61 392 2.65 278 2.69 303 2.72 322 2.74 373 2.75 260 2.85 229 2.86
                           325 2.86 136 2.88 146 2.96 106 2.98 522 3.37 571 3.39 508 3.39 548 3.45
 439  0.669  0.600  0.501- 124 2.63 128 2.71 383 2.72 248 2.73 342 2.75 380 2.78  84 2.80 328 2.80
                           133 2.81 193 2.82 289 2.86 287 3.03 566 3.35 512 3.41 552 3.41 520 3.42
 440  0.672  0.498  0.594- 290 2.60 335 2.60 271 2.70 248 2.73 383 2.73 193 2.74 249 2.75 266 2.84
                           243 2.92 287 2.95 395 3.06 552 3.35 570 3.39 575 3.46 566 3.46 489 3.47
 441  0.000  0.700  0.407-  72 2.71 318 2.79 338 2.79 116 2.79 152 2.79 341 2.79 285 2.79  73 2.81
                           134 2.81 199 2.81 382 2.82 505 3.42 561 3.42 517 3.42 501 3.42 527 3.52
 442  0.500  0.901  0.609- 393 2.49 267 2.53 246 2.67 302 2.72 184 2.82 337 2.83  67 3.00 283 3.03
                           308 3.07 169 3.09 257 3.23 495 3.40 524 3.41 530 3.46 529 3.47 558 3.67
 443  0.160  0.702  0.601- 298 2.51 316 2.53 242 2.53 295 2.76 270 2.78 390 2.81 304 2.85 312 2.87
                           256 3.04 378 3.13 119 3.18 541 3.33 513 3.40 527 3.43 537 3.50 565 3.53
 444  0.500  0.199  0.506- 350 2.58 140 2.68 115 2.70 305 2.71  96 2.77 286 2.77 187 2.83 168 2.86
                           284 2.86 131 2.87 363 2.91 132 2.96 494 3.39 499 3.39 523 3.40 573 3.40
 445  0.000  0.900  0.407- 348 2.76 253 2.79 155 2.79 262 2.79 205 2.79 285 2.79 111 2.79  75 2.79
                           231 2.79 188 2.81 135 2.81 561 3.42 501 3.42 562 3.42 544 3.42 539 3.57
 446  0.333  0.199  0.506- 173 2.59 117 2.68 140 2.69 154 2.71 286 2.77 163 2.78  71 2.84 189 2.86
                           145 2.87 168 2.87 131 2.89 343 2.97 573 3.37 514 3.40 494 3.40 508 3.43
 447  0.667  0.500  0.407- 107 2.74 334 2.79  76 2.79 281 2.79 110 2.79  68 2.79 133 2.79 372 2.79
                           128 2.81 380 2.87 383 2.90 512 3.42 572 3.42 555 3.42 554 3.42 489 3.46
 448  0.167  0.300  0.407- 229 2.78 373 2.79 100 2.79 330 2.79 388 2.79  86 2.79 101 2.79 106 2.79
                           204 2.79 145 2.80 260 2.82 559 3.42 519 3.42 574 3.42 521 3.42 508 3.57
 449  0.333  0.500  0.407- 146 2.74 196 2.78 329 2.79  78 2.79 379 2.79 203 2.79 344 2.79 108 2.79
                           345 2.82 220 2.84 384 2.88 518 3.42 556 3.42 519 3.42 557 3.42 490 3.44
 450  0.331  0.599  0.501- 119 2.63 345 2.69 384 2.70 233 2.71 206 2.73 143 2.77 244 2.81 344 2.82
                           385 2.83 192 2.85 196 2.86 177 3.04 543 3.35 557 3.42 510 3.42 490 3.45
 451  0.334  0.801  0.502- 232 2.68 169 2.71 346 2.72 361 2.74 149 2.75 314 2.77 201 2.78 385 2.80
                            70 2.84 355 2.85 191 2.87 312 2.94 565 3.37 529 3.40 536 3.41 503 3.42
 452  0.333  0.900  0.407- 327 2.76 346 2.77 306 2.78  77 2.79 194 2.79 326 2.79 263 2.79  70 2.79
                           221 2.79 149 2.83 361 2.87 491 3.42 507 3.42 545 3.42 547 3.42 528 3.48
 453  0.833  0.700  0.407- 382 2.76 102 2.79 332 2.79 318 2.79 338 2.79 162 2.79 202 2.79  73 2.79
[...]
  350              map_forward                          45.280387                   3158   6
  351                map_gather                            0.079760                 1594   7
  352                m_alltoallv_z                        43.812941                 1594   7
  353                map_scatter                           1.360335                 1594   7
  354              map_backward                         18.598107                   3128   6
  355                map_gather                            1.062410                 1564   7
  356                m_alltoallv_z                        17.384915                 1564   7
  357                map_scatter                           0.121872                 1564   7
  358        ggaall_grid                          27.813842                          271   3
  359        m_sumb_d                              0.552318                         1400   3
  360        fewald                                0.022022                           30   3
  361          rsp                                   0.020218                         30   4
  362          rcp                                   0.001579                         30   4
  363        pothar                                0.032210                           15   3
  364          m_sumb_d                              0.029976                         15   4
  365        m_bcast_d                             0.134912                           15   3
  366      potlok_metagga                        0.000019                             15   2
  367      set_dd_magatom                        0.000008                              8   2
  368      set_dd_paw                            0.194731                             15   2
  369        set_rsgf_all                          0.000032                           15   3
  370        m_sumb_d                              0.189373                          105   3
  371      m_bcast_d                             0.004271                             16   2
  372      wavpre_noio                           0.775423                              7   2
  373        stufak                                0.739153                            7   3
  374      eddiag                              250.620533                              7   2
  375        overl                                 0.003581                            7   3
  376        redis_proj                            2.885612                           21   3
  377          m_alltoall_d                          2.882397                        903   4
  378        fftwav_mpi                            1.582325                          301   3
  379          fft3d_mpi                             1.419929                        301   4
  380            fftbrc_mpi                            1.217815                      301   5
  381              fftbas_plan_mpi                       1.216870                    301   6
  382                dfftw_execute                         0.582918                  903   7
  383                map_forward                           0.450336                  602   7
  384                  map_gather                            0.036868                301   8
  385                  m_alltoallv_z                         0.231711                301   8
  386                  map_scatter                           0.073274                301   8
  387        hamilt_local                          1.330539                          301   3
  388          vhamil                                0.182063                        301   4
  389          kinhamil                              1.145944                        301   4
  390            fftext_mpi                            1.132421                      301   5
  391              fft3d_mpi                             1.106994                    301   6
  392                fftbrc_mpi                            0.931818                  301   7
  393                  fftbas_plan_mpi                       0.930788                301   8
  394                    dfftw_execute                         0.502983              903   9
  395                    map_backward                          0.244302              602   9
  396                      map_gather                            0.064825            301  10
  397                      m_alltoallv_z                         0.120277            301  10
  398                      map_scatter                           0.053878            301  10
  399        redis_pw                              1.089059                          609   3
  400          m_alltoall_d                          1.051848                        903   4
  401        orth1                                 0.792864                          301   3
  402        m_sumb_d                              3.782442                            7   3
  403        shift_bands_between_low_high          0.000009                            7   3
  404        lincom                                1.189378                            7   3
  405      set_charge                            2.037055                              7   2
  406        soft_charge                           1.555340                            7   3
  407          fftwav_mpi                            1.208083                        252   4
  408            fft3d_mpi                             1.085650                      252   5
  409              fftbrc_mpi                            0.920831                    252   6
  410                fftbas_plan_mpi                       0.920085                  252   7
  411                  dfftw_execute                         0.481349                756   8
  412                  map_forward                           0.268899                504   8
  413                    map_gather                            0.028543              252   9
  414                    m_alltoallv_z                         0.095934              252   9
  415                    map_scatter                           0.058448              252   9
  416          pw_charge                             0.140435                        252   4
  417          m_sumb_d                              0.134783                          7   4
  418          fft_gq                                0.063914                          7   4
  419            fft3d_mpi                             0.062460                        7   5
  420              fftbrc_mpi                            0.059750                      7   6
  421                fftbas_plan_mpi                       0.059634                    7   7
  422                  dfftw_execute                         0.007429                 21   8
  423                  map_backward                          0.048167                 14   8
  424                    map_gather                            0.003322               14   9
  425                    m_alltoallv_z                         0.043720               14   9
  426                    map_scatter                           0.000941               14   9
  427        depsum                                0.022366                            7   3
  428          m_sumb_d                              0.019287                          7   4
  429        augmentation_charge                   0.457997                            7   3
  430          m_sumb_d                              0.023357                          7   4
  431          fft3d_mpi                             0.088679                          7   4
  432            fftbrc_mpi                            0.086767                        7   5
  433              fftbas_plan_mpi                       0.086746                      7   6
  434                dfftw_execute                         0.008416                   21   7
  435                map_backward                          0.072504                   14   7
  436                  map_gather                            0.003916                  7   8
  437                  m_alltoallv_z                         0.067974                  7   8
  438                  map_scatter                           0.000492                  7   8
 
 Flat profile
 ============
 
             routine name                   CPU           calls
 ---------------------------------------------------------------
 edwav                               26318.035504        1421
 m_alltoallv_z                        2517.866293      325192
 m_sumb_d                             1869.465030      508264
 potlok                               1702.157097        1437
 choleski                              895.234448        1429
 lincom                                645.025675        4291
 m_alltoall_d                          599.869009     1049096
 dfftw_execute                         523.339685      966978
 eddiag                                453.251980         727
 ggaall_grid                           385.477238        1701
 orth1                                 241.869978       94967
 fftbas_plan_mpi                       214.531743      322326
 fft3d_mpi                             167.179196      322326
 eddav                                 159.953492           5
 total_time                            127.022667           1
 map_scatter                            95.329396      325192
 fftwav_mpi                             75.588971      149528
 eccp                                   71.934219      122292
 map_gather                             69.938610      325192
 augmentation_charge                    68.446037        1429
 setdij_                                60.163423        1646
 racc0                                  57.893756       31283
 rpro1                                  54.353546       31068
 map_forward                            53.846132      408018
 orthch                                 31.635868        1429
 pw_charge                              28.242643       51444
 m_bcast_z                              20.920767        2795
 vhamil                                 19.100982       31928
 lapack                                 15.250799         796
 m_bcast_d                              13.789275        3857
 w1_dscal                               12.635939       30487
 redis_pw                               10.278047      129003
 force_and_stress                        9.700893           8
 fftext_mpi                              5.647648       62415
 rspher_all                              4.669924         105
 rpromu                                  3.962282        1144
 redis_proj                              3.882446      109913
 elmin_all                               3.582300           8
 ggemm                                   3.012338        1011
 soft_charge                             2.477579        1429
 overl                                   2.394114       34726
 rpromu_gemm                             2.197860      324896
 map_backward                            2.185255      236634
 rsp                                     2.032460        2882
 kinhamil                                1.353621       31928
 forloc                                  1.303303           8
 forhar                                  1.272049           8
 densta                                  1.223965        1440
 fftbrc_mpi                              1.006850      322326
 stufak                                  0.846550           8
 set_dd_paw                              0.645103        1445
 depsum                                  0.612969        1429
 set_charge                              0.399918        1429
 fft_gq                                  0.289911        1429
 hamilt_local                            0.260404       31132
 pothar                                  0.214862        1437
 rpro_isp                                0.174078         104
 rcp                                     0.152195        2882
 w1_copy                                 0.110932        2388
 fewald                                  0.092204        2882
 inisym                                  0.073674           1
 strnlr                                  0.061499           8
 wavpre_noio                             0.036270           7
 apply_precond                           0.035193         581
 overl1                                  0.030040         796
 setup_precond                           0.021899         215
 strehar                                 0.018190           8
 fornlr                                  0.016983           8
 strkin                                  0.016476           8
 strelo                                  0.015561           8
 hamiltmu                                0.012419         796
 newband                                 0.009830         801
 redis_pw_all                            0.009344        1421
 raccmu_                                 0.009301         796
 redis_pw_over_bands                     0.005822        1436
 set_rsgf_all                            0.003712        1445
 w1_projall                              0.003375         581
 fordep                                  0.002157           8
 potlok_metagga                          0.001780        1437
 truncate_high_frequency_w1              0.000908        1011
 brgrid                                  0.000641           1
 phaser                                  0.000576         818
 posmap                                  0.000387           2
 crpa_reader                             0.000234           1
 rotate_active_occupied_orbital          0.000140           8
 proall                                  0.000126           8
 set_dd_magatom                          0.000042          16
 vectorpot                               0.000031           1
 shift_bands_between_low_high            0.000018          15
 ---------------------------------------------------------------
  summed up times    37635.7180871964     
 
 Accumulative profile
 ====================
 
             routine name                   CPU           calls
 ---------------------------------------------------------------
 total_time                          37635.718087           1
 elmin_all                           37023.663671           8
 edwav                               31142.012468        1421
 potlok                               4846.083375        1437
 fft3d_mpi                            3645.223159      322326
 fftbrc_mpi                           3478.043963      322326
 fftbas_plan_mpi                      3477.037114      322326
 m_alltoallv_z                        2517.866293      325192
 map_forward                          2150.017626      408018
 orthch                               2073.856642        1429
 m_sumb_d                             1869.465030      508264
 choleski                              895.234448        1429
 fftwav_mpi                            712.555890      149528
 eddiag                                650.887298         727
 lincom                                645.025675        4291
 m_alltoall_d                          599.869009     1049096
 map_backward                          589.148059      236634
 dfftw_execute                         523.339685      966978
 set_charge                            417.274047        1429
 ggaall_grid                           385.477238        1701
 redis_proj                            331.875712      109913
 soft_charge                           316.562946        1429
 redis_pw                              282.153790      129003
 orth1                                 241.869978       94967
 fftext_mpi                            228.582067       62415
 eddav                                 220.374391           5
 hamilt_local                          134.471647       31132
 kinhamil                              118.576235       31928
 augmentation_charge                    95.506345        1429
 map_scatter                            95.329396      325192
 setdij_                                89.384396        1646
 eccp                                   80.512354      122292
 force_and_stress                       71.481454           8
 racc0                                  70.739078       31283
 map_gather                             69.938610      325192
 rpro1                                  62.715876       31068
 redis_pw_over_bands                    43.791966        1436
 redis_pw_all                           43.786144        1421
 rpro_isp                               28.408021         104
 pw_charge                              28.242643       51444
 strnlr                                 23.186442           8
 m_bcast_z                              20.920767        2795
 set_dd_paw                             19.162827        1445
 vhamil                                 19.100982       31928
 densta                                 18.215209        1440
 lapack                                 15.250799         796
 m_bcast_d                              13.789275        3857
 fft_gq                                 13.028429        1429
 w1_dscal                               12.635939       30487
 fornlr                                  7.819588           8
 rpromu                                  6.970098        1144
 hamiltmu                                5.188992         796
 depsum                                  4.804838        1429
 rspher_all                              4.669924         105
 pothar                                  3.202270        1437
 ggemm                                   3.012338        1011
 fewald                                  2.910517        2882
 fordep                                  2.695287           8
 overl                                   2.394114       34726
 proall                                  2.222625           8
 rpromu_gemm                             2.197860      324896
 rsp                                     2.032460        2882
 raccmu_                                 1.710600         796
 newband                                 1.644571         801
 forloc                                  1.325245           8
 forhar                                  1.307183           8
 w1_projall                              1.178494         581
 stufak                                  0.846550           8
 wavpre_noio                             0.775423           7
 rcp                                     0.152195        2882
 w1_copy                                 0.110932        2388
 inisym                                  0.074061           1
 apply_precond                           0.035193         581
 overl1                                  0.030040         796
 setup_precond                           0.029392         215
 strelo                                  0.023455           8
 strkin                                  0.022676           8
 strehar                                 0.022333           8
 set_rsgf_all                            0.003712        1445
 potlok_metagga                          0.001780        1437
 truncate_high_frequency_w1              0.000908        1011
 brgrid                                  0.000641           1
 phaser                                  0.000576         818
 posmap                                  0.000387           2
 crpa_reader                             0.000234           1
 rotate_active_occupied_orbital          0.000140           8
 set_dd_magatom                          0.000042          16
 vectorpot                               0.000031           1
 shift_bands_between_low_high            0.000018          15
 ---------------------------------------------------------------
 
Profiling took   7.737267  2.502814  0.007142  0.006321 seconds
Profiling took   9.689874 seconds
