 vasp.6.3.2 27Jun22 (build Jan 03 2024 23:25:20) gamma-only                     
  
 executed on           IFC15_impi date 2024.06.05  05:24:54
 running  512 mpi-ranks, with    1 threads/rank
 distrk:  each k-point on  512 cores,    1 groups
 distr:  one band on NCORE=  32 cores,   16 groups


--------------------------------------------------------------------------------------------------------


 INCAR:
   ENCUT = 500.000000
   SIGMA = 0.010000
   EDIFF = 1.00e-05
   ALGO = A
   ISMEAR = 0
   NELM = 200
   NSW = 999
   NCORE = 32
   LCHARG = .TRUE.
   LWAVE = .TRUE.
   LREAL = Auto
   IBRION = 5
   POTIM = 0.015
   NFREE = 2
   ISYM = 0
   EDIFFG = -0.05
   GGA = BF
   LUSE_VDW = .TRUE.
   ZAB_VDW = -1.8867
   LBEEFENS = .TRUE.
   DIPOL = 0.5 0.5 0.65
   IDIPOL = 3
   LDIPOL = .TRUE.

 POTCAR:    PAW_PBE Au 04Oct2007                  
 POTCAR:    PAW_PBE O 08Apr2002                   
 POTCAR:    PAW_PBE Sr_sv 07Sep2000               
 POTCAR:    PAW_PBE Ti_sv 26Sep2005               
 POTCAR:    PAW_PBE H 15Jun2001                   
 -----------------------------------------------------------------------------
|                                                                             |
|               ----> ADVICE to this user running VASP <----                  |
|                                                                             |
|     You have switched on vdW-DFT.                                           |
|     This routine was written and supplied by Jiri Klimes. We recommend      |
|     that you carefully read and cite the following publications:            |
|       J. Klimes, D.R. Bowler, A. Michelides                                 |
|          J. Phys.: Cond Matt. 22 022201 (2010)                              |
|       J. Klimes, D.R. Bowler, A. Michelides                                 |
|          Phys. Rev. B. 83, 195131 (2011)                                    |
|     and references therein.                                                 |
|                                                                             |
 -----------------------------------------------------------------------------

 POTCAR:    PAW_PBE Au 04Oct2007                  
   SHA256 =  d0044ae04e2bdce24051b198fc5c053d722a5bc6fe3c3b100514a13fc5d2db88 Au/POTCAR             
   COPYR  = (c) Copyright 04Oct2007 Georg Kresse                                                    
   COPYR  = This file is part of the software VASP. Any use, copying, and all other rights are regul
   COPYR  = If you do not have a valid VASP license, you may not use, copy or distribute this file. 
   VRHFIN =Au: s1d10                                                                                
   LEXCH  = PE                                                                                      
   EATOM  =   926.0867 eV,   68.0654 Ry                                                             
                                                                                                    
   TITEL  = PAW_PBE Au 04Oct2007                                                                    
   LULTRA =        F    use ultrasoft PP ?                                                          
   IUNSCR =        1    unscreen: 0-lin 1-nonlin 2-no                                               
   RPACOR =    2.330    partial core radius                                                         
   POMASS =  196.966; ZVAL   =   11.000    mass and valenz                                          
   RCORE  =    2.500    outmost cutoff radius                                                       
   RWIGS  =    2.840; RWIGS  =    1.503    wigner-seitz radius (au A)                               
   ENMAX  =  229.943; ENMIN  =  172.457 eV                                                          
   ICORE  =        3    local potential                                                             
   LCOR   =        T    correct aug charges                                                         
   LPAW   =        T    paw PP                                                                      
   EAUG   =  356.670                                                                                
   DEXC   =    0.000                                                                                
   RMAX   =    2.562    core radius for proj-oper                                                   
   RAUG   =    1.300    factor for augmentation sphere                                              
   RDEP   =    2.598    radius for radial grids                                                     
   RDEPT  =    2.193    core radius for aug-charge                                                  
                                                                                                    
   Atomic configuration                                                                             
   16 entries                                                                                       
     n  l   j            E        occ.                                                              
     1  0  0.50    -80748.5001   2.0000                                                             
     2  0  0.50    -14244.7466   2.0000                                                             
     2  1  1.50    -12310.9591   6.0000                                                             
     3  0  0.50     -3362.1768   2.0000                                                             
     3  1  1.50     -2801.5463   6.0000                                                             
     3  2  2.50     -2203.8206  10.0000                                                             
     4  0  0.50      -729.8168   2.0000                                                             
     4  1  1.50      -546.0527   6.0000                                                             
     4  2  2.50      -325.7302  10.0000                                                             
     4  3  3.50       -81.1472  14.0000                                                             
     5  0  0.50      -108.3201   2.0000                                                             
     5  1  1.50       -59.7479   6.0000                                                             
     5  2  2.50        -6.8783  10.0000                                                             
     6  0  0.50        -5.7602   1.0000                                                             
     6  1  1.50        -6.8029   0.0000                                                             
     5  3  2.50        -1.3606   0.0000                                                             
   Description                                                                                      
     l       E           TYP  RCUT    TYP  RCUT                                                     
     2     -6.8782861     23  2.500                                                                 
     2     -8.2388687     23  2.500                                                                 
     0     -5.7601759     23  2.500                                                                 
     0     -0.8493231     23  2.500                                                                 
     1     -2.7211652     23  2.500                                                                 
     1     27.2116520     23  2.500                                                                 
     3     -1.3605826     23  2.500                                                                 
  local pseudopotential read in
  partial core-charges read in
  partial kinetic energy density read in
  atomic valenz-charges read in
  non local Contribution for L=           2  read in
    real space projection operators read in
  non local Contribution for L=           2  read in
    real space projection operators read in
  non local Contribution for L=           0  read in
    real space projection operators read in
  non local Contribution for L=           0  read in
    real space projection operators read in
  non local Contribution for L=           1  read in
    real space projection operators read in
  non local Contribution for L=           1  read in
    real space projection operators read in
    PAW grid and wavefunctions read in
 
   number of l-projection  operators is LMAX  =           6
   number of lm-projection operators is LMMAX =          18
 
 POTCAR:    PAW_PBE O 08Apr2002                   
   SHA256 =  818f92134a0a090dccd8ba1447fa70422a3b330e708bb4f08108d8ae51209ddf O/POTCAR              
   COPYR  = (c) Copyright 08Apr2002 Georg Kresse                                                    
   COPYR  = This file is part of the software VASP. Any use, copying, and all other rights are regul
   COPYR  = If you do not have a valid VASP license, you may not use, copy or distribute this file. 
   VRHFIN =O: s2p4                                                                                  
   LEXCH  = PE                                                                                      
   EATOM  =   432.3788 eV,   31.7789 Ry                                                             
                                                                                                    
   TITEL  = PAW_PBE O 08Apr2002                                                                     
   LULTRA =        F    use ultrasoft PP ?                                                          
   IUNSCR =        1    unscreen: 0-lin 1-nonlin 2-no                                               
   RPACOR =    1.200    partial core radius                                                         
   POMASS =   16.000; ZVAL   =    6.000    mass and valenz                                          
   RCORE  =    1.520    outmost cutoff radius                                                       
   RWIGS  =    1.550; RWIGS  =    0.820    wigner-seitz radius (au A)                               
   ENMAX  =  400.000; ENMIN  =  300.000 eV                                                          
   ICORE  =        2    local potential                                                             
   LCOR   =        T    correct aug charges                                                         
   LPAW   =        T    paw PP                                                                      
   EAUG   =  605.392                                                                                
   DEXC   =    0.000                                                                                
   RMAX   =    1.553    core radius for proj-oper                                                   
   RAUG   =    1.300    factor for augmentation sphere                                              
   RDEP   =    1.550    radius for radial grids                                                     
   RDEPT  =    1.329    core radius for aug-charge                                                  
                                                                                                    
   Atomic configuration                                                                             
    4 entries                                                                                       
     n  l   j            E        occ.                                                              
     1  0  0.50      -514.6923   2.0000                                                             
     2  0  0.50       -23.9615   2.0000                                                             
     2  1  0.50        -9.0305   4.0000                                                             
     3  2  1.50        -9.5241   0.0000                                                             
   Description                                                                                      
     l       E           TYP  RCUT    TYP  RCUT                                                     
     0    -23.9615318     23  1.200                                                                 
     0     -9.5240782     23  1.200                                                                 
     1     -9.0304911     23  1.520                                                                 
     1      8.1634956     23  1.520                                                                 
     2     -9.5240782      7  1.500                                                                 
  local pseudopotential read in
  partial core-charges read in
  partial kinetic energy density read in
  kinetic energy density of atom read in
  atomic valenz-charges read in
  non local Contribution for L=           0  read in
    real space projection operators read in
  non local Contribution for L=           0  read in
    real space projection operators read in
  non local Contribution for L=           1  read in
    real space projection operators read in
  non local Contribution for L=           1  read in
    real space projection operators read in
    PAW grid and wavefunctions read in
 
   number of l-projection  operators is LMAX  =           4
   number of lm-projection operators is LMMAX =           8
 
 POTCAR:    PAW_PBE Sr_sv 07Sep2000               
   SHA256 =  a8389d3481648516ee67182ee030b298d280b37e29cbbf2d8595f040d757c710 Sr_sv/POTCAR          
   COPYR  = (c) Copyright 07Sep2000 Georg Kresse                                                    
   COPYR  = This file is part of the software VASP. Any use, copying, and all other rights are regul
   COPYR  = If you do not have a valid VASP license, you may not use, copy or distribute this file. 
   VRHFIN =Sr: 4s4p5s                                                                               
   LEXCH  = PE                                                                                      
   EATOM  =   843.0319 eV,   61.9611 Ry                                                             
                                                                                                    
   TITEL  = PAW_PBE Sr_sv 07Sep2000                                                                 
   LULTRA =        F    use ultrasoft PP ?                                                          
   IUNSCR =        1    unscreen: 0-lin 1-nonlin 2-no                                               
   RPACOR =    2.200    partial core radius                                                         
   POMASS =   87.620; ZVAL   =   10.000    mass and valenz                                          
   RCORE  =    2.500    outmost cutoff radius                                                       
   RWIGS  =    4.040; RWIGS  =    2.138    wigner-seitz radius (au A)                               
   ENMAX  =  229.353; ENMIN  =  172.014 eV                                                          
   RCLOC  =    2.201    cutoff for local pot                                                        
   LCOR   =        T    correct aug charges                                                         
   LPAW   =        T    paw PP                                                                      
   EAUG   =  366.804                                                                                
   DEXC   =    0.000                                                                                
   RMAX   =    2.547    core radius for proj-oper                                                   
   RAUG   =    1.300    factor for augmentation sphere                                              
   RDEP   =    2.562    radius for radial grids                                                     
   RDEPT  =    2.128    core radius for aug-charge                                                  
                                                                                                    
   Atomic configuration                                                                             
   10 entries                                                                                       
     n  l   j            E        occ.                                                              
     1  0  0.50    -15934.8930   2.0000                                                             
     2  0  0.50     -2157.6250   2.0000                                                             
     2  1  1.50     -1917.0034   6.0000                                                             
     3  0  0.50      -333.7288   2.0000                                                             
     3  1  1.50      -256.0992   6.0000                                                             
     3  2  2.50      -127.9971  10.0000                                                             
     4  0  0.50       -40.8953   2.0000                                                             
     5  0  0.50        -3.5257   1.9990                                                             
     4  1  1.50       -22.8179   6.0000                                                             
     4  2  1.50        -1.2815   0.0010                                                             
   Description                                                                                      
     l       E           TYP  RCUT    TYP  RCUT                                                     
     0    -40.8953213     23  2.480                                                                 
     0     -3.5257161     23  2.480                                                                 
     1    -22.8178632     23  2.500                                                                 
     1    -24.1784458     23  2.500                                                                 
     2     -1.2814598     23  2.500                                                                 
     2      0.2279365     23  2.500                                                                 
  local pseudopotential read in
  partial core-charges read in
  partial kinetic energy density read in
  atomic valenz-charges read in
  non local Contribution for L=           0  read in
    real space projection operators read in
  non local Contribution for L=           0  read in
    real space projection operators read in
  non local Contribution for L=           1  read in
    real space projection operators read in
  non local Contribution for L=           1  read in
    real space projection operators read in
  non local Contribution for L=           2  read in
    real space projection operators read in
  non local Contribution for L=           2  read in
    real space projection operators read in
    PAW grid and wavefunctions read in
 
   number of l-projection  operators is LMAX  =           6
   number of lm-projection operators is LMMAX =          18
 
 POTCAR:    PAW_PBE Ti_sv 26Sep2005               
   SHA256 =  4d747badb5a5ea28d858fbac70885b3f8929d6fd9e5b0dbe1ecb9878dc164da1 Ti_sv/POTCAR          
   COPYR  = (c) Copyright 26Sep2005 Georg Kresse                                                    
   COPYR  = This file is part of the software VASP. Any use, copying, and all other rights are regul
   COPYR  = If you do not have a valid VASP license, you may not use, copy or distribute this file. 
   VRHFIN =Ti: 3p4s3d                                                                               
   LEXCH  = PE                                                                                      
   EATOM  =  1588.0892 eV,  116.7213 Ry                                                             
                                                                                                    
   TITEL  = PAW_PBE Ti_sv 26Sep2005                                                                 
   LULTRA =        F    use ultrasoft PP ?                                                          
   IUNSCR =        1    unscreen: 0-lin 1-nonlin 2-no                                               
   RPACOR =    2.000    partial core radius                                                         
   POMASS =   47.880; ZVAL   =   12.000    mass and valenz                                          
   RCORE  =    2.300    outmost cutoff radius                                                       
   RWIGS  =    2.300; RWIGS  =    1.217    wigner-seitz radius (au A)                               
   ENMAX  =  274.610; ENMIN  =  205.957 eV                                                          
   ICORE  =        3    local potential                                                             
   LCOR   =        T    correct aug charges                                                         
   LPAW   =        T    paw PP                                                                      
   EAUG   =  482.848                                                                                
   RMAX   =    2.348    core radius for proj-oper                                                   
   RAUG   =    1.300    factor for augmentation sphere                                              
   RDEP   =    2.381    radius for radial grids                                                     
   RDEPT  =    1.930    core radius for aug-charge                                                  
                                                                                                    
   Atomic configuration                                                                             
    8 entries                                                                                       
     n  l   j            E        occ.                                                              
     1  0  0.50     -4865.3608   2.0000                                                             
     2  0  0.50      -533.1368   2.0000                                                             
     2  1  1.50      -440.5031   6.0000                                                             
     3  0  0.50       -59.3186   2.0000                                                             
     4  0  0.50        -3.7291   1.0000                                                             
     3  1  1.50       -35.7012   6.0000                                                             
     3  2  2.50        -1.9157   3.0000                                                             
     4  3  2.50        -1.3606   0.0000                                                             
   Description                                                                                      
     l       E           TYP  RCUT    TYP  RCUT                                                     
     0    -59.3185931     23  1.800                                                                 
     0     -3.7290822     23  2.300                                                                 
     1    -35.7012045     23  2.300                                                                 
     1     -1.3605826     23  2.300                                                                 
     2     -1.9156920     23  2.300                                                                 
     2     -0.0236318     23  2.300                                                                 
     3     -1.3605826     23  2.300                                                                 
  local pseudopotential read in
  partial core-charges read in
  partial kinetic energy density read in
  atomic valenz-charges read in
  non local Contribution for L=           0  read in
    real space projection operators read in
  non local Contribution for L=           0  read in
    real space projection operators read in
  non local Contribution for L=           1  read in
    real space projection operators read in
  non local Contribution for L=           1  read in
    real space projection operators read in
  non local Contribution for L=           2  read in
    real space projection operators read in
  non local Contribution for L=           2  read in
    real space projection operators read in
    PAW grid and wavefunctions read in
 
   number of l-projection  operators is LMAX  =           6
   number of lm-projection operators is LMMAX =          18
 
 POTCAR:    PAW_PBE H 15Jun2001                   
   SHA256 =  030f79b5d3ab3cf0e668861823c8fb652ff669f3e15e46930bd03bfd63a607b6 H/POTCAR              
   COPYR  = (c) Copyright 15Jun2001 Georg Kresse                                                    
   COPYR  = This file is part of the software VASP. Any use, copying, and all other rights are regul
   COPYR  = If you do not have a valid VASP license, you may not use, copy or distribute this file. 
   VRHFIN =H: ultrasoft test                                                                        
   LEXCH  = PE                                                                                      
   EATOM  =    12.4884 eV,    0.9179 Ry                                                             
                                                                                                    
   TITEL  = PAW_PBE H 15Jun2001                                                                     
   LULTRA =        F    use ultrasoft PP ?                                                          
   IUNSCR =        0    unscreen: 0-lin 1-nonlin 2-no                                               
   RPACOR =    0.000    partial core radius                                                         
   POMASS =    1.000; ZVAL   =    1.000    mass and valenz                                          
   RCORE  =    1.100    outmost cutoff radius                                                       
   RWIGS  =    0.700; RWIGS  =    0.370    wigner-seitz radius (au A)                               
   ENMAX  =  250.000; ENMIN  =  200.000 eV                                                          
   RCLOC  =    0.701    cutoff for local pot                                                        
   LCOR   =        T    correct aug charges                                                         
   LPAW   =        T    paw PP                                                                      
   EAUG   =  400.000                                                                                
   RMAX   =    1.123    core radius for proj-oper                                                   
   RAUG   =    1.200    factor for augmentation sphere                                              
   RDEP   =    1.112    radius for radial grids                                                     
   RDEPT  =    0.926    core radius for aug-charge                                                  
                                                                                                    
   Atomic configuration                                                                             
    2 entries                                                                                       
     n  l   j            E        occ.                                                              
     1  0  0.50        -6.4927   1.0000                                                             
     2  1  0.50        -3.4015   0.0000                                                             
   Description                                                                                      
     l       E           TYP  RCUT    TYP  RCUT                                                     
     0     -6.4927494     23  1.100                                                                 
     0      6.8029130     23  1.100                                                                 
     1     -4.0817478     23  1.100                                                                 
  local pseudopotential read in
  atomic valenz-charges read in
  non local Contribution for L=           0  read in
    real space projection operators read in
  non local Contribution for L=           0  read in
    real space projection operators read in
  non local Contribution for L=           1  read in
    real space projection operators read in
    PAW grid and wavefunctions read in
 
   number of l-projection  operators is LMAX  =           3
   number of lm-projection operators is LMMAX =           5
 
 Optimization of the real space projectors (new method)

 maximal supplied QI-value         = 15.12
 optimisation between [QCUT,QGAM] = [ 11.34, 22.83] = [ 36.00,145.93] Ry 
 Optimized for a Real-space Cutoff    1.39 Angstroem

   l    n(q)    QCUT    max X(q) W(low)/X(q) W(high)/X(q)  e(spline) 
   2      9    11.338    60.898    0.39E-03    0.42E-03    0.21E-06
   2      9    11.338    58.894    0.40E-03    0.42E-03    0.22E-06
   0      9    11.338   109.617    0.13E-03    0.20E-04    0.13E-06
   0      9    11.338    75.026    0.13E-03    0.20E-04    0.13E-06
   1      9    11.338    16.344    0.33E-04    0.24E-03    0.18E-06
   1      9    11.338    10.160    0.26E-04    0.19E-03    0.15E-06
 Optimization of the real space projectors (new method)

 maximal supplied QI-value         = 24.76
 optimisation between [QCUT,QGAM] = [ 11.39, 22.77] = [ 36.31,145.25] Ry 
 Optimized for a Real-space Cutoff    1.00 Angstroem

   l    n(q)    QCUT    max X(q) W(low)/X(q) W(high)/X(q)  e(spline) 
   0      7    11.387    20.381    0.39E-03    0.13E-02    0.15E-06
   0      7    11.387    15.268    0.42E-03    0.14E-02    0.17E-06
   1      6    11.387     5.964    0.41E-03    0.11E-02    0.17E-06
   1      6    11.387     5.382    0.39E-03    0.87E-03    0.15E-06
 Optimization of the real space projectors (new method)

 maximal supplied QI-value         = 15.12
 optimisation between [QCUT,QGAM] = [ 11.34, 22.83] = [ 36.00,145.93] Ry 
 Optimized for a Real-space Cutoff    1.56 Angstroem

   l    n(q)    QCUT    max X(q) W(low)/X(q) W(high)/X(q)  e(spline) 
   0     11    11.338    11.565    0.26E-04    0.80E-05    0.70E-07
   0     11    11.338    10.214    0.41E-04    0.15E-04    0.15E-06
   1     10    11.338   189.983    0.18E-03    0.52E-04    0.42E-06
   1     10    11.338   193.105    0.19E-03    0.52E-04    0.42E-06
   2     10    11.338   115.941    0.22E-03    0.42E-03    0.43E-06
   2     10    11.338    76.444    0.21E-03    0.41E-03    0.42E-06
 Optimization of the real space projectors (new method)

 maximal supplied QI-value         = 16.25
 optimisation between [QCUT,QGAM] = [ 11.38, 22.75] = [ 36.24,144.96] Ry 
 Optimized for a Real-space Cutoff    1.27 Angstroem

   l    n(q)    QCUT    max X(q) W(low)/X(q) W(high)/X(q)  e(spline) 
   0      9    11.376    12.277    0.53E-04    0.25E-04    0.25E-07
   0      9    11.376    11.419    0.89E-04    0.67E-05    0.35E-07
   1      8    11.376     4.010    0.13E-03    0.11E-03    0.29E-07
   1      8    11.376     6.182    0.94E-04    0.19E-03    0.11E-06
   2      8    11.376    47.177    0.13E-03    0.88E-03    0.24E-06
   2      8    11.376    42.437    0.13E-03    0.86E-03    0.23E-06
 Optimization of the real space projectors (new method)

 maximal supplied QI-value         = 34.20
 optimisation between [QCUT,QGAM] = [ 11.29, 22.57] = [ 35.68,142.71] Ry 
 Optimized for a Real-space Cutoff    1.16 Angstroem

   l    n(q)    QCUT    max X(q) W(low)/X(q) W(high)/X(q)  e(spline) 
   0      8    11.287    19.460    0.40E-03    0.73E-03    0.16E-06
   0      8    11.287    12.209    0.38E-03    0.70E-03    0.15E-06
   1      7    11.287     4.655    0.22E-03    0.25E-04    0.22E-06
 -----------------------------------------------------------------------------
|                                                                             |
|               ----> ADVICE to this user running VASP <----                  |
|                                                                             |
|     You enforced a specific xc type in the INCAR file but a different       |
|     type was found in the POTCAR file.                                      |
|     I HOPE YOU KNOW WHAT YOU ARE DOING!                                     |
|                                                                             |
 -----------------------------------------------------------------------------

  PAW_PBE Au 04Oct2007                  :
 energy of atom  1       EATOM= -926.0867
 kinetic energy error for atom=    0.0042 (will be added to EATOM!!)
  PAW_PBE O 08Apr2002                   :
 energy of atom  2       EATOM= -432.3788
 kinetic energy error for atom=    0.0224 (will be added to EATOM!!)
  PAW_PBE Sr_sv 07Sep2000               :
 energy of atom  3       EATOM= -843.0319
 kinetic energy error for atom=    0.0012 (will be added to EATOM!!)
  PAW_PBE Ti_sv 26Sep2005               :
 energy of atom  4       EATOM=-1588.0892
 kinetic energy error for atom=    0.0046 (will be added to EATOM!!)
  PAW_PBE H 15Jun2001                   :
 energy of atom  5       EATOM=  -12.4884
 kinetic energy error for atom=    0.0020 (will be added to EATOM!!)
 
 
 POSCAR: Au O  Sr Ti H
  positions in cartesian coordinates
  No initial velocities read in
 exchange correlation table for  LEXCH =       17
   RHO(1)=    0.500       N(1)  =     2000
   RHO(2)=  100.500       N(2)  =     4000

 VTST: version 4.1, (05/19/21)

 CHAIN: initializing optimizer
 
 OPT: Using VASP Dynamics algorithm
 CHAIN: Read ICHAIN            0
 
 POSCAR: Au O  Sr Ti H
  positions in cartesian coordinates
  No initial velocities read in
 


--------------------------------------------------------------------------------------------------------


 ion  position               nearest neighbor table
   1  0.717  0.526  0.754-  15 2.71  16 2.71  14 2.78  44 2.84   2 2.84  29 2.95  46 3.02
   2  0.624  0.569  0.704- 264 2.08  15 2.82   1 2.84  48 2.87  46 2.88  16 2.91  12 2.93  36 3.05
                            11 3.29   5 3.51 380 3.70
   3  0.718  0.259  0.691- 294 2.06 253 2.08  32 2.66  43 2.79  27 2.83 401 3.05 370 4.01 371 4.04

   4  0.300  0.749  0.696- 310 2.06 266 2.08  23 2.78   9 2.87  50 3.02  42 3.13 372 4.09 368 4.17

   5  0.512  0.603  0.777-  26 2.69  48 2.76  13 2.84  12 2.91  39 2.94  47 2.94  16 3.02   6 3.15
                            49 3.33  31 3.48   2 3.51  30 3.60
   6  0.576  0.726  0.792-  36 2.73  18 2.74  17 2.77  47 2.82  13 2.95  48 3.12   5 3.15  16 3.46

   7  0.550  0.384  0.829-  10 2.75  33 2.81  29 2.87  20 2.87  34 2.97  31 2.99  12 3.04  41 3.36

   8  0.241  0.469  0.709- 309 2.11  19 2.69  24 2.80  45 2.81  40 2.99  35 3.11 378 4.17
   9  0.284  0.661  0.765-  45 2.70  50 2.75  30 2.76  24 2.79   4 2.87
  10  0.603  0.288  0.788-   7 2.75  32 2.78  41 2.80  27 2.80  43 2.80  25 3.10  34 3.31
  11  0.514  0.485  0.678- 279 2.12 247 2.16  26 2.71  12 2.78  49 2.88  34 2.91 389 3.14   2 3.29
                            46 3.34 375 3.57 386 4.03
  12  0.563  0.486  0.763-  11 2.78  34 2.80  49 2.84  29 2.84  31 2.89   5 2.91   2 2.93  46 2.98
                            16 2.99   7 3.04
  13  0.465  0.696  0.829-  50 2.78   5 2.84  47 2.85  30 2.85  39 2.93   6 2.95  18 2.96
  14  0.764  0.432  0.705- 254 2.01  44 2.72   1 2.78  46 2.79  43 2.89 363 3.73 370 4.22
  15  0.734  0.616  0.694- 292 2.10 250 2.12  36 2.68   1 2.71   2 2.82  28 3.24 380 3.41 365 3.73

  16  0.635  0.584  0.800-   1 2.71  47 2.77  36 2.78  31 2.81   2 2.91  12 2.99   5 3.02  29 3.23
                             6 3.46
  17  0.595  0.785  0.712- 257 2.08   6 2.77  28 2.78  18 2.92  48 2.95  36 3.12 379 4.16 384 4.30

  18  0.484  0.780  0.754-   6 2.74  50 2.83  42 2.83  17 2.92  23 2.94  13 2.96  48 3.32
  19  0.350  0.499  0.698- 291 2.11   8 2.69  37 2.87  49 2.88  24 2.92  40 2.92  45 3.01  26 3.05
                           368 4.16 369 4.25
  20  0.430  0.373  0.815-  33 2.77  21 2.81   7 2.87  49 2.92  41 2.94  40 2.96  38 3.02  34 3.18

  21  0.372  0.299  0.755-  37 2.76  35 2.77  20 2.81  40 2.83  41 2.86  22 2.87
  22  0.442  0.228  0.697- 302 2.02 289 2.17  41 2.74  25 2.78  21 2.87  37 3.60 376 3.87 367 4.34

  23  0.386  0.832  0.707- 459 1.58 290 2.09   4 2.78  18 2.94  50 3.00  42 3.04 372 3.53 384 4.10

  24  0.290  0.537  0.778-   9 2.79   8 2.80  38 2.81  45 2.89  40 2.89  30 2.90  19 2.92
  25  0.556  0.208  0.712- 311 2.13  22 2.78  41 2.85  32 2.86  27 2.87  10 3.10 376 3.95
  26  0.452  0.582  0.702- 291 2.11   5 2.69  11 2.71  42 2.77  48 2.86  49 2.87  19 3.05 386 3.63
                           368 4.35
  27  0.613  0.320  0.698- 263 2.04  43 2.76  10 2.80   3 2.83  46 2.86  34 2.86  25 2.87  32 3.48
                           370 3.59 375 4.21
  28  0.706  0.758  0.688- 293 2.05 250 2.05  36 2.63  17 2.78 400 3.13  15 3.24 379 3.80 380 4.18

  29  0.656  0.442  0.812-  12 2.84  44 2.85  31 2.86   7 2.87  43 2.89   1 2.95  16 3.23  46 3.47

  30  0.370  0.618  0.818-   9 2.76  39 2.79  38 2.82  13 2.85  50 2.89  24 2.90   5 3.60
  31  0.571  0.510  0.857-  33 2.76  16 2.81  29 2.86  12 2.89  47 2.92  39 2.93   7 2.99   5 3.48

  32  0.665  0.194  0.752-   3 2.66  10 2.78  25 2.86  27 3.48  43 3.51
  33  0.473  0.451  0.879-  31 2.76  20 2.77  39 2.79   7 2.81  38 2.83
  34  0.515  0.378  0.733-  12 2.80  41 2.81  49 2.86  27 2.86  11 2.91   7 2.97  37 3.08  20 3.18
                            10 3.31 375 4.16
  35  0.283  0.338  0.703- 267 2.07  21 2.77  40 2.82  37 2.90   8 3.11 369 3.54 378 4.09
  36  0.670  0.681  0.749-  28 2.63  15 2.68   6 2.73  16 2.78   2 3.05  17 3.12  48 3.33
  37  0.398  0.382  0.690- 303 2.03 289 2.12  21 2.76  19 2.87  35 2.90  40 3.00  34 3.08  49 3.09
                           369 3.38  22 3.60 375 3.77
  38  0.377  0.494  0.833-  24 2.81  49 2.82  30 2.82  33 2.83  40 2.86  39 2.89  20 3.02
  39  0.464  0.574  0.864-  30 2.79  33 2.79  47 2.83  38 2.89  31 2.93  13 2.93   5 2.94
  40  0.327  0.414  0.769-  35 2.82  21 2.83  38 2.86  24 2.89  19 2.92  20 2.96   8 2.99  37 3.00
                            49 3.12
  41  0.487  0.269  0.775-  22 2.74  10 2.80  34 2.81  25 2.85  21 2.86  20 2.94   7 3.36
  42  0.425  0.702  0.696- 256 2.03  50 2.76  26 2.77 290 2.79  18 2.83  48 2.93  23 3.04   4 3.13
                           398 3.23 386 4.00 368 4.09
  43  0.700  0.346  0.757-  27 2.76   3 2.79  10 2.80  44 2.81  14 2.89  29 2.89  46 3.07  32 3.51

  44  0.774  0.430  0.796-  14 2.72  43 2.81   1 2.84  29 2.85
  45  0.257  0.592  0.694- 265 2.03 310 2.12   9 2.70   8 2.81  24 2.89  19 3.01 368 3.55 373 3.73

  46  0.647  0.443  0.697- 279 2.18  14 2.79  27 2.86   2 2.88  12 2.98   1 3.02  43 3.07  11 3.34
                            29 3.47 370 3.50
  47  0.565  0.641  0.861-  16 2.77   6 2.82  39 2.83  13 2.85  31 2.92   5 2.94
  48  0.544  0.666  0.701- 280 2.11   5 2.76  26 2.86   2 2.87  42 2.93  17 2.95   6 3.12  18 3.32
                            36 3.33 386 3.49
  49  0.443  0.476  0.756-  38 2.82  12 2.84  34 2.86  26 2.87  11 2.88  19 2.88  20 2.92  37 3.09
                            40 3.12   5 3.33
  50  0.376  0.735  0.776-   9 2.75  42 2.76  13 2.78  18 2.83  30 2.89  23 3.00   4 3.02
  51  0.250  0.189  0.454- 448 1.97 418 2.13 319 2.74 360 2.81 342 2.81 327 2.85
  52  0.749  0.938  0.455- 417 1.95 444 2.00 350 2.82 339 2.84 322 2.84 332 2.88
  53  0.749  0.689  0.457- 432 1.98 446 2.04 325 2.78 362 2.83 348 2.85 316 2.88
  54  0.749  0.438  0.456- 422 1.99 458 2.01 323 2.71 347 2.83 359 2.84 349 2.84
  55  0.750  0.190  0.456- 445 1.98 423 2.11 324 2.75 335 2.80 358 2.84 346 2.85
  56  0.417  0.936  0.454- 424 2.00 440 2.01 357 2.76 345 2.78 329 2.87 320 2.92
  57  0.417  0.684  0.454- 414 1.91 443 2.04 356 2.76 344 2.78 321 2.84 331 2.91
  58  0.416  0.435  0.454- 415 1.96 442 2.01 343 2.77 355 2.77 333 2.84 318 2.85
  59  0.084  0.687  0.453- 439 1.97 413 2.09 352 2.76 340 2.79 330 2.82 336 2.94
  60  0.084  0.937  0.453- 436 1.99 412 2.11 353 2.77 341 2.79 326 2.89 338 2.91
  61  0.083  0.437  0.453- 438 1.97 421 2.11 361 2.76 351 2.78 328 2.79 317 2.93
  62  0.084  0.187  0.453- 437 1.98 433 2.12 360 2.76 385 2.78 327 2.87 337 2.89
  63  0.917  0.812  0.454- 434 1.98 411 2.12 362 2.75 339 2.80 341 2.81 336 2.87
  64  0.916  0.562  0.454- 435 1.98 410 2.11 349 2.78 316 2.79 340 2.80 317 2.89
  65  0.251  0.439  0.455- 449 1.98 420 2.06 318 2.70 343 2.81 328 2.85 351 2.86
  66  0.916  0.062  0.454- 455 1.98 430 2.11 358 2.79 385 2.81 332 2.85 338 2.89
  67  0.916  0.312  0.454- 456 1.98 429 2.09 359 2.79 361 2.80 335 2.81 337 2.90
  68  0.417  0.187  0.453- 441 1.98 416 2.09 354 2.78 342 2.80 334 2.81 319 2.88
  69  0.252  0.688  0.456- 419 1.99 450 2.03 321 2.76 344 2.80 352 2.87 330 2.89
  70  0.917  0.937  0.453- 455 1.98 411 2.11 341 2.78 339 2.78 332 2.89 338 2.90
  71  0.583  0.189  0.455- 452 1.98 426 2.09 334 2.73 324 2.79 354 2.82 346 2.84
  72  0.000  0.125  0.498- 430 1.97 433 1.98 385 2.74 337 2.79 338 2.80
  73  0.584  0.810  0.456- 454 1.98 431 2.10 325 2.72 331 2.75 350 2.84 357 2.86
  74  1.000  0.373  0.498- 429 1.94 421 1.96 361 2.74 337 2.77 317 2.85
  75  1.000  0.627  0.498- 413 1.93 410 1.94 340 2.72 336 2.77 317 2.84
  76  0.334  0.126  0.498- 416 1.95 418 2.01 319 2.73 342 2.74 320 2.79 367 3.47
  77  0.000  0.875  0.500- 412 1.96 411 1.98 341 2.78 336 2.79 338 2.79
  78  0.333  0.874  0.499- 424 1.97 425 2.01 321 2.74 345 2.77 320 2.85 372 3.09
  79  0.666  0.126  0.499- 426 1.97 423 2.01 324 2.72 346 2.77 322 2.81 371 3.37
  80  0.336  0.626  0.504- 414 1.92 419 2.08 368 2.76 321 2.80 318 2.82 344 2.90
  81  0.334  0.378  0.503- 415 1.94 420 2.08 318 2.70 369 2.70 343 2.88 319 2.91
  82  0.665  0.379  0.503- 428 1.94 422 2.06 323 2.71 370 2.73 347 2.89 324 2.92
  83  0.915  0.687  0.453- 434 1.97 410 2.10 316 2.75 340 2.79 362 2.80 336 2.94
  84  0.916  0.437  0.454- 435 1.98 429 2.10 359 2.78 349 2.78 361 2.80 317 2.92
  85  0.916  0.187  0.453- 456 1.98 430 2.12 358 2.76 335 2.78 385 2.79 337 2.92
  86  0.583  0.936  0.454- 451 2.00 431 2.06 357 2.77 350 2.79 329 2.88 322 2.88
  87  0.583  0.686  0.455- 427 1.91 454 2.02 356 2.78 348 2.80 325 2.83 331 2.85
  88  0.583  0.439  0.456- 453 2.00 428 2.02 333 2.71 323 2.79 355 2.83 347 2.85
  89  0.250  0.936  0.454- 425 1.94 447 2.01 345 2.78 353 2.78 320 2.90 326 2.92
  90  0.666  0.626  0.503- 427 1.94 432 2.05 380 2.72 325 2.81 323 2.82 348 2.88
  91  0.585  0.562  0.455- 427 1.99 453 2.00 333 2.77 348 2.79 323 2.79 356 2.84
  92  0.583  0.062  0.455- 451 2.00 426 2.02 354 2.80 346 2.82 322 2.85 329 2.86
  93  0.917  0.687  0.361- 434 1.97 340 2.79 316 2.79
  94  0.917  0.437  0.361- 435 1.97 361 2.79 359 2.79
  95  0.917  0.188  0.361- 456 1.97 385 2.79 358 2.79
  96  0.583  0.938  0.361- 451 1.97 357 2.79 350 2.79
  97  0.583  0.687  0.361- 454 1.97 356 2.79 348 2.79
  98  0.583  0.437  0.361- 453 1.97 355 2.79 347 2.79
  99  0.583  0.188  0.361- 452 1.97 354 2.79 346 2.79
 100  0.250  0.938  0.361- 447 1.97 353 2.79 345 2.79
 101  0.917  0.938  0.361- 455 1.97 341 2.79 339 2.79
 102  0.250  0.687  0.361- 450 1.97 352 2.79 344 2.79
 103  0.250  0.188  0.361- 448 1.97 360 2.79 342 2.79
 104  0.750  0.938  0.361- 444 1.97 350 2.79 339 2.79
 105  0.750  0.687  0.361- 446 1.97 348 2.79 316 2.79
 106  0.750  0.437  0.361- 458 1.97 347 2.79 359 2.79
 107  0.750  0.188  0.361- 445 1.97 346 2.79 358 2.79
 108  0.417  0.938  0.361- 440 1.97 345 2.79 357 2.79
 109  0.417  0.687  0.361- 443 1.97 344 2.79 356 2.79
 110  0.417  0.437  0.361- 442 1.97 343 2.79 355 2.79
 111  0.250  0.437  0.361- 449 1.97 351 2.79 343 2.79
 112  0.083  0.063  0.361- 436 1.97 385 2.79 360 2.79
 113  0.083  0.312  0.361- 437 1.97 361 2.79 351 2.79
 114  0.083  0.563  0.361- 438 1.97 352 2.79 340 2.79
 115  0.917  0.312  0.361- 456 1.97 361 2.79 359 2.79
 116  0.917  0.063  0.361- 455 1.97 385 2.79 358 2.79
 117  0.583  0.812  0.361- 454 1.97 357 2.79 350 2.79
 118  0.583  0.563  0.361- 453 1.97 356 2.79 348 2.79
 119  0.583  0.312  0.361- 452 1.97 355 2.79 347 2.79
 120  0.583  0.063  0.361- 451 1.97 354 2.79 346 2.79
 121  0.250  0.812  0.361- 450 1.97 353 2.79 345 2.79
 122  0.250  0.563  0.361- 449 1.97 352 2.79 344 2.79
 123  0.250  0.312  0.361- 448 1.97 351 2.79 343 2.79
 124  0.250  0.063  0.361- 447 1.97 360 2.79 342 2.79
 125  0.750  0.812  0.361- 446 1.97 350 2.79 339 2.79
 126  0.750  0.563  0.361- 458 1.97 348 2.79 316 2.79
 127  0.750  0.312  0.361- 445 1.97 347 2.79 359 2.79
 128  0.750  0.063  0.361- 444 1.97 346 2.79 358 2.79
 129  0.417  0.812  0.361- 443 1.97 345 2.79 357 2.79
 130  0.417  0.563  0.361- 442 1.97 344 2.79 356 2.79
 131  0.417  0.312  0.361- 441 1.97 343 2.79 355 2.79
 132  0.417  0.063  0.361- 440 1.97 342 2.79 354 2.79
 133  0.083  0.812  0.361- 439 1.97 353 2.79 341 2.79
 134  0.417  0.188  0.361- 441 1.97 342 2.79 354 2.79
 135  0.083  0.938  0.361- 436 1.97 353 2.79 341 2.79
 136  0.083  0.687  0.361- 439 1.97 352 2.79 340 2.79
 137  0.083  0.437  0.361- 438 1.97 361 2.79 351 2.79
 138  0.833  0.500  0.407- 458 1.97 435 1.97 316 2.79 359 2.79 349 2.88
 139  0.833  0.750  0.407- 446 1.97 434 1.97 339 2.79 316 2.79 362 2.87
 140  0.084  0.062  0.454- 436 1.98 433 2.11 360 2.80 385 2.81 326 2.85 338 2.88
 141  0.084  0.312  0.454- 437 1.98 421 2.10 351 2.80 361 2.80 337 2.86 327 2.89
 142  0.084  0.562  0.454- 438 1.98 413 2.10 328 2.76 352 2.79 340 2.81 317 2.91
 143  0.083  0.812  0.454- 439 1.98 412 2.11 330 2.77 353 2.80 341 2.81 336 2.88
 144  0.417  0.061  0.455- 416 1.96 440 2.00 354 2.83 342 2.83 320 2.84 329 2.84
 145  0.415  0.311  0.457- 415 1.91 441 2.04 334 2.81 319 2.82 343 2.84 355 2.88
 146  0.416  0.559  0.458- 414 1.99 442 2.02 333 2.73 318 2.74 344 2.88 356 2.90
 147  0.416  0.810  0.455- 443 1.97 424 2.09 321 2.73 331 2.78 345 2.85 357 2.85
 148  0.750  0.064  0.453- 444 1.99 423 2.02 346 2.76 358 2.78 322 2.90 332 2.93
 149  0.747  0.314  0.455- 422 2.00 445 2.02 347 2.75 324 2.82 359 2.83 335 2.94
 150  0.748  0.564  0.454- 432 1.99 458 2.00 348 2.74 323 2.76 316 2.80 349 2.93
 151  0.749  0.813  0.453- 446 1.98 417 2.09 350 2.76 339 2.79 325 2.82 362 2.89
 152  0.250  0.062  0.454- 447 1.98 418 2.11 342 2.80 360 2.81 320 2.85 326 2.88
 153  0.915  0.312  0.547- 429 1.85 409 2.21 335 2.71 337 2.75 363 2.87 381 3.34
 154  0.252  0.314  0.454- 420 1.97 448 2.01 343 2.74 319 2.78 351 2.82 327 2.96
 155  0.252  0.565  0.454- 419 1.99 449 2.01 344 2.74 318 2.77 352 2.80 328 2.93
 156  0.250  0.811  0.455- 450 1.98 425 2.07 321 2.77 330 2.82 345 2.83 353 2.84
 157  0.833  0.250  0.407- 445 1.97 456 1.97 359 2.79 358 2.79 335 2.89
 158  0.584  0.315  0.454- 428 1.95 452 2.02 347 2.76 355 2.79 334 2.86 324 2.87
 159  0.833  0.000  0.407- 444 1.97 455 1.97 358 2.79 339 2.79 332 2.98
 160  0.500  0.500  0.407- 453 1.97 442 1.97 355 2.79 356 2.79 333 2.80
 161  0.083  0.188  0.361- 437 1.97 385 2.79 360 2.79
 162  0.000  0.000  0.407- 455 1.97 436 1.97 385 2.79 341 2.79 338 2.98
 163  0.000  0.250  0.407- 456 1.97 437 1.97 361 2.79 385 2.79 337 2.97
 164  0.000  0.500  0.407- 435 1.97 438 1.97 340 2.79 361 2.79 317 3.01
 165  0.000  0.750  0.407- 434 1.97 439 1.97 341 2.79 340 2.79 336 2.99
 166  0.333  0.000  0.407- 440 1.97 447 1.97 342 2.79 345 2.79 320 2.97
 167  0.333  0.250  0.407- 441 1.97 448 1.97 343 2.79 342 2.79 319 2.88
 168  0.333  0.500  0.407- 442 1.97 449 1.97 343 2.79 344 2.79 318 2.82
 169  0.333  0.750  0.407- 443 1.97 450 1.97 345 2.79 344 2.79 321 2.84
 170  0.667  0.000  0.407- 444 1.97 451 1.97 346 2.79 350 2.79 322 2.96
 171  0.667  0.250  0.407- 445 1.97 452 1.97 347 2.79 346 2.79 324 2.88
 172  0.667  0.500  0.407- 458 1.97 453 1.97 347 2.79 348 2.79 323 2.82
 173  0.667  0.750  0.407- 446 1.97 454 1.97 350 2.79 348 2.79 325 2.85
 174  0.167  0.000  0.407- 447 1.97 436 1.97 360 2.79 353 2.79 326 2.98
 175  0.167  0.250  0.407- 448 1.97 437 1.97 351 2.79 360 2.79 327 2.98
 176  0.167  0.500  0.407- 449 1.97 438 1.97 351 2.79 352 2.79 328 2.86
 177  0.167  0.750  0.407- 450 1.97 439 1.97 353 2.79 352 2.79 330 2.89
 178  0.500  0.000  0.407- 451 1.97 440 1.97 354 2.79 357 2.79 329 2.96
 179  0.500  0.250  0.407- 452 1.97 441 1.97 355 2.79 354 2.79 334 2.85
 180  0.500  0.750  0.407- 454 1.97 443 1.97 357 2.79 356 2.79 331 2.91
 181  0.167  0.124  0.499- 418 1.96 433 2.00 326 2.76 360 2.77 327 2.77
 182  0.918  0.063  0.547- 430 1.84 387 2.20 338 2.70 332 2.72 315 3.20 383 3.24
 183  0.168  0.873  0.500- 425 1.93 412 2.03 330 2.72 353 2.79 326 2.86
 184  0.252  0.188  0.547- 418 1.87 395 2.13 319 2.65 327 2.72 367 3.15 377 3.33
 185  0.750  0.934  0.548- 417 1.82 402 2.27 322 2.77 332 2.78 379 2.92 364 3.16
 186  0.752  0.680  0.553- 432 1.96 400 1.97 380 2.64 365 2.85 362 2.96 325 3.01
 187  0.753  0.435  0.549- 422 1.92 399 2.06 370 2.74 349 2.82 323 2.86 363 2.94
 188  0.423  0.444  0.546- 408 1.88 415 2.06 333 2.61 318 2.84 375 2.89 369 3.12
 189  0.423  0.689  0.546- 414 1.93 398 2.03 331 2.65 386 2.78 321 2.85 368 2.95
 190  0.748  0.184  0.551- 423 1.94 401 1.94 324 2.80 335 2.89 371 3.00 383 3.17
 191  0.416  0.938  0.546- 424 1.84 396 2.25 320 2.69 329 2.70 372 2.92 384 3.12
 192  0.084  0.939  0.546- 412 1.84 406 2.18 326 2.67 338 2.68 374 3.28 366 3.36
 193  0.416  0.192  0.547- 397 1.85 416 2.03 319 2.72 334 2.73 376 3.11 367 3.26
 194  0.087  0.690  0.545- 413 1.86 405 2.22 330 2.62 336 2.72 373 2.77
 195  0.083  0.438  0.545- 421 1.84 404 2.23 317 2.66 328 2.68 378 3.06 381 3.35
 196  0.084  0.189  0.546- 433 1.85 403 2.18 327 2.65 337 2.67 315 3.30 377 3.37
 197  0.499  0.125  0.500- 416 1.98 426 1.99 334 2.73 354 2.78 329 2.82 376 3.21
 198  1.000  0.499  0.595- 457 1.94 404 1.95 317 2.62 381 2.89 382 3.12
 199  0.999  0.754  0.592- 405 1.94 407 1.96 336 2.57 366 2.84 382 3.31
 200  0.335  0.254  0.593- 397 1.90 395 2.06 369 2.67 319 2.70 367 3.08
 201  0.334  0.999  0.592- 396 2.00 394 2.03 320 2.59 372 2.74 367 2.76
 202  1.000  0.998  0.593- 387 2.00 406 2.00 338 2.59 315 2.89 366 2.89
 203  0.001  0.250  0.592- 409 1.95 403 1.99 337 2.58 381 2.94 315 2.94
 204  0.333  0.496  0.591- 408 1.85 390 2.15 318 2.70 369 2.74 368 2.86
 205  0.336  0.742  0.590- 398 1.93 391 2.07 368 2.62 321 2.66 372 3.04
 206  0.663  0.247  0.591- 392 1.89 401 2.15 324 2.63 370 2.79 371 2.82
 207  0.666  0.000  0.592- 393 2.01 402 2.02 322 2.59 379 2.70 371 2.83
 208  0.666  0.742  0.590- 388 1.95 400 2.05 380 2.58 325 2.64 379 3.14
 209  0.667  0.494  0.592- 389 1.81 399 2.13 370 2.72 323 2.73 380 2.97
 210  0.167  0.998  0.592- 394 1.98 406 2.02 326 2.57 374 2.91 377 2.91
 211  0.169  0.249  0.593- 395 1.94 403 2.03 327 2.61 378 2.77 377 2.95
 212  0.171  0.749  0.595- 391 1.86 405 2.16 330 2.76 373 2.76 374 2.85
 213  0.248  0.436  0.549- 390 1.94 420 1.98 369 2.65 318 2.83 328 2.84 378 3.02
 214  0.165  0.503  0.588- 390 1.83 404 2.05 328 2.57 373 2.79 378 3.00
 215  0.250  0.683  0.552- 391 1.96 419 1.97 368 2.72 373 2.90 330 2.92 321 2.93
 216  0.581  0.186  0.549- 426 1.93 392 1.98 334 2.73 324 2.82 376 2.96 371 3.07
 217  0.915  0.813  0.547- 411 1.84 407 2.18 362 2.68 336 2.72 364 3.23 366 3.29
 218  0.917  0.563  0.547- 410 1.84 457 2.23 317 2.68 349 2.72 365 2.85
 219  0.582  0.560  0.549- 389 1.89 427 2.09 386 2.69 333 2.76 380 2.83 323 2.85
 220  0.586  0.815  0.550- 431 1.91 388 2.06 325 2.76 331 2.82 379 2.92 384 3.02
 221  0.583  0.312  0.546- 428 1.89 392 2.11 334 2.74 324 2.76 375 2.77 370 2.88
 222  0.582  0.063  0.547- 426 1.84 393 2.22 329 2.72 322 2.73 376 2.94 371 3.07
 223  0.253  0.812  0.551- 391 1.83 425 2.07 321 2.77 372 2.86 330 2.87 374 3.20
 224  0.252  0.559  0.544- 419 1.91 390 2.04 318 2.63 328 2.78 368 2.89 373 3.20
 225  0.249  0.314  0.546- 420 1.85 395 2.30 369 2.66 327 2.72 319 2.73 378 3.04
 226  0.251  0.062  0.547- 418 1.84 394 2.25 320 2.67 326 2.72 367 3.05 377 3.27
 227  0.748  0.808  0.546- 400 1.84 417 2.03 325 2.67 362 2.75 379 3.14 364 3.30
 228  0.746  0.558  0.545- 432 1.96 399 1.98 323 2.61 349 2.78 380 2.84 365 3.23
 229  0.415  0.813  0.549- 398 1.96 424 1.96 321 2.76 331 2.80 372 2.88 384 3.06
 230  0.748  0.060  0.545- 423 1.84 402 2.21 322 2.63 332 2.68 371 3.16 383 3.35
 231  0.748  0.311  0.548- 422 1.98 401 1.98 370 2.66 324 2.74 335 2.84 363 3.03
 232  0.416  0.320  0.553- 397 1.96 415 1.98 375 2.67 369 2.73 319 2.98 334 2.99
 233  0.420  0.565  0.555- 408 1.90 414 2.12 386 2.66 368 2.71 333 2.92 318 3.04
 234  0.416  0.066  0.548- 416 1.83 396 2.31 320 2.75 329 2.77 376 2.91 367 3.06
 235  0.085  0.813  0.547- 412 1.85 405 2.18 330 2.67 336 2.74 374 3.17 366 3.32
 236  0.082  0.564  0.546- 413 1.84 404 2.23 317 2.69 328 2.74 373 2.80
 237  0.086  0.313  0.547- 421 1.84 403 2.25 327 2.68 337 2.76 378 2.89 381 3.35
 238  0.082  0.063  0.548- 433 1.84 406 2.22 338 2.70 326 2.71 315 3.18 377 3.28
 239  0.916  0.939  0.546- 411 1.84 387 2.20 332 2.65 338 2.70 364 3.26 366 3.33
 240  0.913  0.689  0.545- 410 1.85 407 2.23 362 2.63 336 2.72 365 2.82
 241  0.583  0.939  0.546- 431 1.84 393 2.23 329 2.68 322 2.68 379 2.97 384 3.09
 242  0.917  0.189  0.546- 430 1.85 409 2.17 335 2.67 337 2.68 383 3.30 315 3.31
 243  0.916  0.437  0.546- 429 1.85 457 2.24 349 2.67 317 2.70 363 2.94 381 3.35
 244  0.577  0.436  0.552- 389 1.95 428 2.05 375 2.63 333 2.76 370 2.94 323 3.02
 245  0.580  0.686  0.547- 427 1.92 388 2.12 386 2.65 331 2.71 380 2.82 325 2.84
 246  0.252  0.937  0.545- 425 1.84 394 2.21 320 2.68 326 2.74 372 2.92 374 3.31
 247  0.498  0.505  0.609- 408 2.10  11 2.16 389 2.25 386 2.73 375 3.00 333 3.26
 248  0.499  0.253  0.590- 397 1.99 392 2.04 375 2.64 334 2.65 376 2.99
 249  0.499  0.999  0.592- 396 1.99 393 2.01 329 2.57 376 2.76 384 2.82
 250  0.753  0.694  0.657-  28 2.05  15 2.12 400 2.38 365 3.02 380 3.16
 251  0.748  0.937  0.640- 402 1.80 364 2.49 379 2.53
 252  0.254  0.186  0.641- 395 1.74 367 2.52 377 2.55
 253  0.746  0.194  0.647- 401 1.99   3 2.08 371 2.68 383 2.72
 254  0.756  0.435  0.639- 399 1.98  14 2.01 363 2.60 370 2.79
 255  0.416  0.931  0.640- 396 1.81 384 2.51 372 2.55
 256  0.422  0.675  0.632-  42 2.03 398 2.03 386 2.53 368 2.59
 257  0.590  0.810  0.645- 388 1.94  17 2.08 379 2.64 384 2.78
 258  0.916  0.062  0.641- 387 1.80 383 2.49 315 2.50
 259  0.913  0.562  0.642- 457 1.80 382 2.46 365 2.54
 260  0.915  0.312  0.639- 409 1.80 381 2.50 363 2.52
 261  0.914  0.813  0.642- 407 1.79 364 2.50 366 2.51
 262  0.582  0.065  0.640- 393 1.80 371 2.51 376 2.52
 263  0.583  0.320  0.634- 392 1.97  27 2.04 375 2.53 370 2.67
 264  0.592  0.565  0.639- 389 1.98   2 2.08 380 2.63 386 2.82
 265  0.247  0.574  0.628- 390 1.99  45 2.03 373 2.54 368 2.55
 266  0.262  0.799  0.646- 391 1.95   4 2.08 372 2.76 374 2.93
 267  0.249  0.317  0.641- 395 1.94  35 2.07 378 2.58 369 2.65
 268  0.251  0.059  0.642- 394 1.79 367 2.49 377 2.50
 269  0.917  0.563  0.361- 435 1.97 340 2.79 316 2.79
 270  0.500  0.374  0.500- 415 1.97 428 1.99 355 2.79 333 2.80 334 2.82 375 2.87
 271  0.500  0.873  0.501- 424 1.98 431 1.99 331 2.68 357 2.81 329 2.83 384 3.27
 272  0.501  0.621  0.500- 427 1.98 414 1.99 333 2.70 356 2.79 386 2.80 331 2.95
 273  0.832  0.623  0.500- 432 1.90 410 2.05 349 2.75 316 2.79 362 2.87 365 3.10
 274  0.833  0.874  0.498- 417 1.95 411 2.01 362 2.74 339 2.74 332 2.83
 275  0.833  0.373  0.499- 422 1.90 429 2.04 359 2.77 335 2.79 349 2.83 363 3.15
 276  0.833  0.124  0.500- 423 1.95 430 2.01 335 2.77 332 2.78 358 2.78
 277  0.167  0.376  0.498- 420 1.90 421 2.02 351 2.72 328 2.76 327 2.87 378 3.30
 278  0.168  0.624  0.500- 419 1.90 413 2.07 328 2.78 352 2.79 330 2.84 373 3.04
 279  0.581  0.439  0.646- 389 2.11  11 2.12  46 2.18 375 2.85 370 3.04
 280  0.580  0.685  0.639- 388 1.87  48 2.11 386 2.63 380 2.78
 281  0.917  0.187  0.641- 409 1.79 383 2.49 315 2.52
 282  0.582  0.935  0.639- 393 1.79 384 2.50 379 2.51
 283  0.831  0.751  0.593- 400 1.86 407 2.09 362 2.71 365 2.79 364 2.90
 284  0.832  0.248  0.591- 401 1.84 409 2.12 335 2.65 363 2.81 383 2.88
 285  0.833  0.503  0.589- 399 1.83 457 2.06 349 2.59 365 2.79 363 2.96
 286  0.832  0.002  0.592- 402 1.99 387 2.02 332 2.57 383 2.86 364 2.92
 287  0.502  0.756  0.592- 388 1.98 398 2.01 331 2.65 384 2.71 386 2.93
 288  0.417  0.063  0.641- 396 1.79 367 2.51 376 2.55
 289  0.427  0.305  0.655-  37 2.12  22 2.17 397 2.32 375 2.91 369 3.41
 290  0.415  0.805  0.644- 398 1.91  23 2.09 384 2.76  42 2.79 372 2.79
 291  0.397  0.551  0.652-  19 2.11  26 2.11 408 2.16 368 2.79 386 3.50
 292  0.753  0.570  0.635- 399 1.91  15 2.10 365 2.61 380 2.70
 293  0.741  0.810  0.640- 400 1.97  28 2.05 379 2.59 364 2.68
 294  0.747  0.312  0.640- 401 2.00   3 2.06 370 2.62 363 2.75
 295  0.748  0.067  0.639- 402 1.80 371 2.48 383 2.48
 296  0.084  0.312  0.640- 403 1.80 381 2.49 378 2.51
 297  0.667  0.875  0.500- 431 1.97 417 2.00 325 2.75 350 2.78 322 2.80 379 3.22
 298  0.087  0.562  0.642- 404 1.80 382 2.47 373 2.54
 299  0.084  0.060  0.642- 406 1.80 377 2.50 315 2.50
 300  0.087  0.437  0.640- 404 1.79 378 2.51 381 2.53
 301  0.084  0.185  0.641- 403 1.79 377 2.50 315 2.50
 302  0.418  0.188  0.640- 397 1.99  22 2.02 376 2.63 367 2.67
 303  0.415  0.419  0.630-  37 2.03 408 2.07 375 2.53 369 2.59
 304  0.084  0.935  0.641- 406 1.80 374 2.48 366 2.49
 305  0.083  0.687  0.640- 405 1.80 382 2.45 373 2.52
 306  0.913  0.436  0.640- 457 1.80 363 2.52 381 2.54
 307  0.917  0.687  0.640- 407 1.80 382 2.45 365 2.51
 308  0.914  0.937  0.641- 387 1.80 364 2.47 366 2.50
 309  0.241  0.443  0.642- 390 1.90   8 2.11 378 2.63 369 2.93
 310  0.262  0.677  0.663-   4 2.06  45 2.12 368 2.91 373 3.30
 311  0.578  0.190  0.644- 392 1.90  25 2.13 376 2.68 371 2.71
 312  0.252  0.930  0.637- 394 1.80 374 2.46 372 2.50
 313  0.084  0.812  0.642- 405 1.79 374 2.47 366 2.53
 314  0.917  0.812  0.361- 434 1.97 341 2.79 339 2.79
 315  0.001  0.123  0.619- 299 2.50 301 2.50 258 2.50 281 2.52 202 2.89 203 2.94 238 3.18 182 3.20
                           196 3.30 242 3.31 409 3.43 387 3.43 406 3.43 403 3.45 433 3.89 430 3.91
 316  0.833  0.625  0.407-  83 2.75  64 2.79 273 2.79 126 2.79 105 2.79 269 2.79  93 2.79 138 2.79
                           139 2.79 150 2.80  53 2.88 458 3.42 446 3.42 435 3.42 434 3.42 432 3.45
 317  1.000  0.501  0.507- 198 2.62 195 2.66 218 2.68 236 2.69 243 2.70  75 2.84  74 2.85  64 2.89
                           142 2.91  84 2.92  61 2.93 164 3.01 410 3.39 413 3.39 429 3.41 421 3.42
 318  0.331  0.499  0.501- 224 2.63  65 2.70  81 2.70 204 2.70 146 2.74 155 2.77  80 2.82 168 2.82
                           213 2.83 188 2.84  58 2.85 233 3.04 408 3.35 449 3.41 419 3.42 415 3.44
 319  0.330  0.248  0.503- 184 2.65 200 2.70 193 2.72 225 2.73  76 2.73  51 2.74 154 2.78 145 2.82
                           167 2.88  68 2.88  81 2.91 232 2.98 397 3.32 418 3.36 420 3.42 448 3.44
 320  0.333  0.001  0.506- 201 2.59 226 2.67 246 2.68 191 2.69 234 2.75  76 2.79 144 2.84  78 2.85
                           152 2.85  89 2.90  56 2.92 166 2.97 416 3.33 425 3.39 418 3.40 424 3.40
 321  0.334  0.751  0.502- 205 2.66 147 2.73  78 2.74 229 2.76  69 2.76 156 2.77 223 2.77  80 2.80
                            57 2.84 169 2.84 189 2.85 215 2.93 391 3.37 414 3.40 398 3.42 424 3.42
 322  0.666  0.000  0.506- 207 2.59 230 2.63 241 2.68 222 2.73 185 2.77 297 2.80  79 2.81  52 2.84
                            92 2.85  86 2.88 148 2.90 170 2.96 426 3.37 417 3.38 423 3.38 431 3.39
 323  0.669  0.500  0.501- 228 2.61  82 2.71  54 2.71 209 2.73 150 2.76  88 2.79  91 2.79 172 2.82
                            90 2.82 219 2.85 187 2.86 244 3.02 389 3.34 458 3.41 422 3.41 432 3.42
 324  0.667  0.248  0.503- 206 2.63  79 2.72 231 2.74  55 2.75 221 2.76  71 2.79 190 2.80 149 2.82
                           216 2.82 158 2.87 171 2.88  82 2.92 426 3.41 401 3.42 428 3.43 423 3.43
 325  0.666  0.752  0.502- 208 2.64 227 2.67  73 2.72 297 2.75 220 2.76  53 2.78  90 2.81 151 2.82
                            87 2.83 245 2.84 173 2.85 186 3.01 400 3.35 431 3.38 427 3.39 454 3.45
 326  0.166  0.001  0.506- 210 2.57 192 2.67 238 2.71 226 2.72 246 2.74 181 2.76 140 2.85 183 2.86
                           152 2.88  60 2.89  89 2.92 174 2.98 425 3.37 418 3.38 433 3.39 412 3.44
 327  0.166  0.248  0.506- 211 2.61 196 2.65 237 2.68 184 2.72 225 2.72 181 2.77  51 2.85 277 2.87
                            62 2.87 141 2.89 154 2.96 175 2.98 420 3.37 418 3.39 433 3.39 421 3.46
 328  0.163  0.500  0.502- 214 2.57 195 2.68 236 2.74 142 2.76 277 2.76 224 2.78 278 2.78  61 2.79
                           213 2.84  65 2.85 176 2.86 155 2.93 390 3.33 421 3.39 419 3.42 438 3.43
 329  0.500  0.999  0.506- 249 2.57 241 2.68 191 2.70 222 2.72 234 2.77 197 2.82 271 2.83 144 2.84
                            92 2.86  56 2.87  86 2.88 178 2.96 424 3.37 416 3.38 431 3.40 426 3.40
 330  0.164  0.751  0.503- 194 2.62 235 2.67 183 2.72 212 2.76 143 2.77  59 2.82 156 2.82 278 2.84
                           223 2.87  69 2.89 177 2.89 215 2.92 391 3.34 412 3.37 413 3.43 419 3.45
 331  0.501  0.753  0.504- 189 2.65 287 2.65 271 2.68 245 2.71  73 2.75 147 2.78 229 2.80 220 2.82
                            87 2.85 180 2.91  57 2.91 272 2.95 431 3.38 398 3.38 424 3.41 427 3.42
 332  0.834  0.000  0.506- 286 2.57 239 2.65 230 2.68 182 2.72 276 2.78 185 2.78 274 2.83  66 2.85
                            52 2.88  70 2.89 148 2.93 159 2.98 417 3.36 423 3.36 430 3.41 411 3.41
 333  0.501  0.500  0.500- 188 2.61 272 2.70  88 2.71 146 2.73 219 2.76 244 2.76  91 2.77 160 2.80
                           270 2.80  58 2.84 233 2.92 247 3.26 453 3.41 428 3.43 442 3.44 415 3.45
 334  0.501  0.248  0.502- 248 2.65 193 2.73  71 2.73 216 2.73 197 2.73 221 2.74  68 2.81 145 2.81
                           270 2.82 179 2.85 158 2.86 232 2.99 397 3.37 426 3.39 428 3.42 452 3.45
 335  0.835  0.248  0.503- 284 2.65 242 2.67 153 2.71 276 2.77  85 2.78 275 2.79  55 2.80  67 2.81
                           231 2.84 157 2.89 190 2.89 149 2.94 401 3.34 430 3.37 429 3.43 422 3.45
 336  1.000  0.751  0.507- 199 2.57 240 2.72 217 2.72 194 2.72 235 2.74  75 2.77  77 2.79  63 2.87
                           143 2.88  83 2.94  59 2.94 165 2.99 413 3.38 410 3.39 412 3.40 411 3.40
 337  0.001  0.250  0.506- 203 2.58 196 2.67 242 2.68 153 2.75 237 2.76  74 2.77  72 2.79 141 2.86
                            62 2.89  67 2.90  85 2.92 163 2.97 421 3.39 429 3.39 433 3.40 430 3.42
 338  1.000  1.000  0.506- 202 2.59 192 2.68 239 2.70 182 2.70 238 2.70  77 2.79  72 2.80 140 2.88
                            66 2.89  70 2.90  60 2.91 162 2.98 430 3.40 411 3.40 412 3.41 433 3.41
 339  0.833  0.875  0.407- 274 2.74  70 2.78 125 2.79 104 2.79 314 2.79 101 2.79 139 2.79 159 2.79
                           151 2.79  63 2.80  52 2.84 446 3.42 434 3.42 444 3.42 455 3.42 417 3.48
 340  0.000  0.625  0.407-  75 2.72 269 2.79  93 2.79 114 2.79 136 2.79 164 2.79 165 2.79  83 2.79
                            59 2.79  64 2.80 142 2.81 435 3.42 434 3.42 438 3.42 439 3.42 413 3.53
 341  0.000  0.875  0.407-  77 2.78  70 2.78  60 2.79 314 2.79 133 2.79 101 2.79 135 2.79 165 2.79
                           162 2.79 143 2.81  63 2.81 434 3.42 439 3.42 455 3.42 436 3.42 412 3.57
 342  0.333  0.125  0.407-  76 2.74 132 2.79 134 2.79 124 2.79 103 2.79 166 2.79 167 2.79  68 2.80
                           152 2.80  51 2.81 144 2.83 440 3.42 441 3.42 447 3.42 448 3.42 416 3.48
 343  0.333  0.375  0.407- 154 2.74  58 2.77 110 2.79 131 2.79 111 2.79 123 2.79 167 2.79 168 2.79
                            65 2.81 145 2.84  81 2.88 441 3.42 442 3.42 448 3.42 449 3.42 415 3.43
 344  0.333  0.625  0.407- 155 2.74  57 2.78 130 2.79 109 2.79 122 2.79 102 2.79 168 2.79 169 2.79
                            69 2.80 146 2.88  80 2.90 442 3.42 443 3.42 449 3.42 450 3.42 414 3.45
 345  0.333  0.875  0.407-  78 2.77  89 2.78  56 2.78 129 2.79 121 2.79 108 2.79 100 2.79 169 2.79
                           166 2.79 156 2.83 147 2.85 443 3.42 450 3.42 440 3.42 447 3.42 425 3.49
 346  0.667  0.125  0.407- 148 2.76  79 2.77 128 2.79 107 2.79 120 2.79  99 2.79 170 2.79 171 2.79
                            92 2.82  71 2.84  55 2.85 444 3.42 445 3.42 451 3.42 452 3.42 426 3.54
 347  0.667  0.375  0.407- 149 2.75 158 2.76 106 2.79 127 2.79  98 2.79 119 2.79 171 2.79 172 2.79
                            54 2.83  88 2.85  82 2.89 445 3.42 458 3.42 453 3.42 452 3.42 428 3.47
 348  0.667  0.625  0.407- 150 2.74 126 2.79 105 2.79 118 2.79  97 2.79 172 2.79 173 2.79  91 2.79
                            87 2.80  53 2.85  90 2.88 458 3.42 446 3.42 453 3.42 454 3.42 427 3.43
 349  0.836  0.500  0.503- 285 2.59 243 2.67 218 2.72 273 2.75 228 2.78  64 2.78  84 2.78 187 2.82
                           275 2.83  54 2.84 138 2.88 150 2.93 399 3.36 422 3.41 432 3.41 429 3.42
 350  0.667  0.875  0.407- 151 2.76 297 2.78  86 2.79 125 2.79 104 2.79 117 2.79  96 2.79 173 2.79
                           170 2.79  52 2.82  73 2.84 446 3.42 454 3.42 444 3.42 451 3.42 417 3.50
 351  0.167  0.375  0.407- 277 2.72  61 2.78 111 2.79 137 2.79 123 2.79 113 2.79 176 2.79 175 2.79
                           141 2.80 154 2.82  65 2.86 448 3.42 449 3.42 437 3.42 438 3.42 420 3.44
 352  0.167  0.625  0.407-  59 2.76 142 2.79 122 2.79 102 2.79 114 2.79 136 2.79 176 2.79 177 2.79
                           278 2.79 155 2.80  69 2.87 449 3.42 450 3.42 438 3.42 439 3.42 419 3.45
 353  0.167  0.875  0.407-  60 2.77  89 2.78 183 2.79 121 2.79 133 2.79 100 2.79 135 2.79 177 2.79
                           174 2.79 143 2.80 156 2.84 450 3.42 439 3.42 447 3.42 436 3.42 425 3.46
 354  0.500  0.125  0.407-  68 2.78 197 2.78 120 2.79  99 2.79 132 2.79 134 2.79 178 2.79 179 2.79
                            92 2.80  71 2.82 144 2.83 451 3.42 452 3.42 440 3.42 441 3.42 416 3.51
 355  0.500  0.375  0.407-  58 2.77 270 2.79  98 2.79 119 2.79 110 2.79 131 2.79 179 2.79 160 2.79
                           158 2.79  88 2.83 145 2.88 452 3.42 453 3.42 441 3.42 442 3.42 415 3.44
 356  0.500  0.625  0.407-  57 2.76  87 2.78 118 2.79  97 2.79 130 2.79 109 2.79 160 2.79 180 2.79
                           272 2.79  91 2.84 146 2.90 453 3.42 454 3.42 442 3.42 443 3.42 427 3.44
 357  0.500  0.875  0.407-  56 2.76  86 2.77 117 2.79 129 2.79  96 2.79 108 2.79 180 2.79 178 2.79
                           271 2.81 147 2.85  73 2.86 454 3.42 443 3.42 451 3.42 440 3.42 424 3.52
 358  0.833  0.125  0.407-  85 2.76 148 2.78 276 2.78 128 2.79 107 2.79 116 2.79  95 2.79 159 2.79
                           157 2.79  66 2.79  55 2.84 444 3.42 445 3.42 455 3.42 456 3.42 423 3.53
 359  0.833  0.375  0.407- 275 2.77  84 2.78 106 2.79 127 2.79  94 2.79 115 2.79 157 2.79 138 2.79
                            67 2.79 149 2.83  54 2.84 445 3.42 458 3.42 456 3.42 435 3.42 422 3.45
 360  0.167  0.125  0.407-  62 2.76 181 2.77 124 2.79 103 2.79 112 2.79 161 2.79 174 2.79 175 2.79
                           140 2.80 152 2.81  51 2.81 447 3.42 448 3.42 436 3.42 437 3.42 418 3.57
 361  0.000  0.375  0.407-  74 2.74  61 2.76  94 2.79 115 2.79 137 2.79 113 2.79 163 2.79 164 2.79
                            84 2.80  67 2.80 141 2.80 435 3.42 456 3.42 438 3.42 437 3.42 429 3.54
 362  0.836  0.752  0.503- 240 2.63 217 2.68 283 2.71 274 2.74 227 2.75  63 2.75  83 2.80  53 2.83
                           139 2.87 273 2.87 151 2.89 186 2.96 400 3.31 411 3.37 410 3.43 434 3.45
 363  0.837  0.372  0.604- 306 2.52 260 2.52 254 2.60 294 2.75 284 2.81 153 2.87 243 2.94 187 2.94
                           285 2.96 231 3.03 275 3.15 409 3.39 401 3.42 457 3.44 399 3.49 429 3.52
 364  0.832  0.876  0.618- 308 2.47 251 2.49 261 2.50 293 2.68 283 2.90 286 2.92 185 3.16 217 3.23
                           239 3.26 227 3.30 387 3.44 400 3.44 402 3.45 407 3.47 411 3.91 366 3.95
 365  0.841  0.627  0.603- 307 2.51 259 2.54 292 2.61 285 2.79 283 2.79 240 2.82 218 2.85 186 2.85
                           250 3.02 273 3.10 228 3.23 407 3.33 457 3.37 399 3.41 410 3.44 400 3.53
 366  0.999  0.875  0.622- 304 2.49 308 2.50 261 2.51 313 2.53 199 2.84 202 2.89 217 3.29 235 3.32
                           239 3.33 192 3.36 407 3.40 405 3.42 406 3.45 387 3.45 364 3.95 411 3.96
 367  0.332  0.119  0.614- 268 2.49 288 2.51 252 2.52 302 2.67 201 2.76 226 3.05 234 3.06 200 3.08
                           184 3.15 193 3.26 394 3.37 396 3.38 395 3.45  76 3.47 397 3.55 418 3.77
 368  0.334  0.625  0.596- 265 2.55 256 2.59 205 2.62 233 2.71 215 2.72  80 2.76 291 2.79 204 2.86
                           224 2.89 310 2.91 189 2.95 408 3.38 398 3.43 414 3.44 419 3.46 391 3.49
 369  0.326  0.374  0.593- 303 2.59 213 2.65 267 2.65 225 2.66 200 2.67  81 2.70 232 2.73 204 2.74
                           309 2.93 188 3.12 420 3.29  37 3.38 395 3.40 289 3.41 390 3.41 408 3.42
 370  0.671  0.372  0.594- 294 2.62 231 2.66 263 2.67 209 2.72  82 2.73 187 2.74 254 2.79 206 2.79
                           221 2.88 244 2.94 279 3.04 422 3.36 401 3.39 428 3.44 389 3.45 392 3.47
 371  0.665  0.124  0.612- 295 2.48 262 2.51 253 2.68 311 2.71 206 2.82 207 2.83 190 3.00 222 3.07
                           216 3.07 230 3.16  79 3.37 392 3.37 402 3.39 393 3.40 401 3.51 426 3.74
 372  0.334  0.877  0.602- 312 2.50 255 2.55 201 2.74 266 2.76 290 2.79 223 2.86 229 2.88 191 2.92
                           246 2.92 205 3.04  78 3.09 394 3.33 396 3.34 391 3.44 398 3.44  23 3.53
 373  0.158  0.627  0.601- 305 2.52 265 2.54 298 2.54 212 2.76 194 2.77 214 2.79 236 2.80 215 2.90
                           278 3.04 224 3.20 310 3.30 405 3.33 404 3.36 413 3.39 390 3.49 391 3.55
 374  0.166  0.873  0.619- 312 2.46 313 2.47 304 2.48 212 2.85 210 2.91 266 2.93 235 3.17 223 3.20
                           192 3.28 246 3.31 391 3.43 394 3.43 405 3.43 406 3.45 412 3.89 366 3.96
 375  0.502  0.371  0.595- 303 2.53 263 2.53 244 2.63 248 2.64 232 2.67 221 2.77 279 2.85 270 2.87
                           188 2.89 289 2.91 247 3.00 392 3.39 428 3.40 397 3.43 415 3.49 408 3.54
 376  0.499  0.121  0.606- 262 2.52 288 2.55 302 2.63 311 2.68 249 2.76 234 2.91 222 2.94 216 2.96
                           248 2.99 193 3.11 197 3.21 393 3.33 396 3.37 392 3.47 397 3.52 426 3.64
 377  0.168  0.122  0.622- 299 2.50 268 2.50 301 2.50 252 2.55 210 2.91 211 2.95 226 3.27 238 3.28
                           184 3.33 196 3.37 395 3.41 394 3.45 406 3.46 403 3.48 367 3.90 418 3.95
 378  0.163  0.372  0.608- 300 2.51 296 2.51 267 2.58 309 2.63 211 2.77 237 2.89 214 3.00 213 3.02
                           225 3.04 195 3.06 277 3.30 403 3.34 390 3.42 395 3.47 404 3.47 421 3.61
 379  0.665  0.881  0.607- 282 2.51 251 2.53 293 2.59 257 2.64 207 2.70 220 2.92 185 2.92 241 2.97
                           227 3.14 208 3.14 297 3.22 393 3.31 402 3.35 388 3.49 400 3.55 431 3.60
 380  0.667  0.626  0.594- 208 2.58 264 2.63 186 2.64 292 2.70  90 2.72 280 2.78 245 2.82 219 2.83
                           228 2.84 209 2.97 250 3.16 389 3.33 388 3.37 432 3.40 427 3.41  15 3.41
 381  0.000  0.375  0.623- 296 2.49 260 2.50 300 2.53 306 2.54 198 2.89 203 2.94 153 3.34 195 3.35
                           237 3.35 243 3.35 404 3.44 457 3.45 409 3.45 403 3.50 378 3.89 363 3.90
 382  1.000  0.622  0.643- 305 2.45 307 2.45 259 2.46 298 2.47 198 3.12 199 3.31 457 3.54 404 3.55
                           405 3.65 407 3.67 365 3.95 373 3.96 317 4.90 336 5.01
 383  0.834  0.125  0.620- 295 2.48 258 2.49 281 2.49 253 2.72 286 2.86 284 2.88 190 3.17 182 3.24
                           242 3.30 230 3.35 401 3.42 402 3.43 387 3.44 409 3.47 430 3.93 315 3.95
 384  0.501  0.875  0.610- 282 2.50 255 2.51 287 2.71 290 2.76 257 2.78 249 2.82 220 3.02 229 3.06
                           241 3.09 191 3.12 271 3.27 396 3.39 393 3.40 398 3.44 388 3.44 431 3.69
 385  0.000  0.125  0.407-  72 2.74  62 2.78 116 2.79  95 2.79 112 2.79 161 2.79 162 2.79 163 2.79
                            85 2.79  66 2.81 140 2.81 455 3.42 456 3.42 436 3.42 437 3.42 430 3.57
 386  0.504  0.625  0.593- 256 2.53 280 2.63 245 2.65 233 2.66 219 2.69 247 2.73 189 2.78 272 2.80
                           264 2.82 287 2.93 427 3.36 388 3.38 389 3.44 414 3.45  48 3.49 398 3.49
 387  0.916  1.000  0.604- 258 1.80 308 1.80 202 2.00 286 2.02 182 2.20 239 2.20 315 3.43 383 3.44
                           364 3.44 366 3.45 332 3.50 338 3.53
 388  0.585  0.750  0.599- 280 1.87 257 1.94 208 1.95 287 1.98 220 2.06 245 2.12 380 3.37 386 3.38
                           384 3.44 331 3.49 325 3.49 379 3.49
 389  0.591  0.501  0.594- 209 1.81 219 1.89 244 1.95 264 1.98 279 2.11 247 2.25  11 3.14 380 3.33
                           323 3.34 386 3.44 370 3.45 333 3.52 375 3.58
 390  0.242  0.498  0.594- 214 1.83 309 1.90 213 1.94 265 1.99 224 2.04 204 2.15 328 3.33 369 3.41
                           378 3.42 373 3.49 318 3.50 368 3.56
 391  0.249  0.752  0.592- 223 1.83 212 1.86 266 1.95 215 1.96 205 2.07 330 3.34 321 3.37 374 3.43
                           372 3.44 368 3.49 373 3.55
 392  0.584  0.247  0.597- 206 1.89 311 1.90 263 1.97 216 1.98 248 2.04 221 2.11 371 3.37 375 3.39
                           324 3.44 334 3.46 370 3.47 376 3.47
 393  0.582  0.000  0.604- 282 1.79 262 1.80 207 2.01 249 2.01 222 2.22 241 2.23 379 3.31 376 3.33
                           371 3.40 384 3.40 329 3.54 322 3.56
 394  0.250  0.997  0.604- 268 1.79 312 1.80 210 1.98 201 2.03 246 2.21 226 2.25 372 3.33 367 3.37
                           374 3.43 377 3.45 326 3.54 320 3.55
 395  0.249  0.246  0.604- 252 1.74 267 1.94 211 1.94 200 2.06 184 2.13 225 2.30 369 3.40 377 3.41
                           367 3.45 378 3.47 327 3.52 319 3.58
 396  0.417  0.998  0.606- 288 1.79 255 1.81 249 1.99 201 2.00 191 2.25 234 2.31 372 3.34 376 3.37
                           367 3.38 384 3.39 329 3.59 320 3.59
 397  0.415  0.249  0.591- 193 1.85 200 1.90 232 1.96 248 1.99 302 1.99 289 2.32 319 3.32 334 3.37
                           375 3.43 369 3.50 376 3.52 367 3.55
 398  0.417  0.751  0.595- 290 1.91 205 1.93 229 1.96 287 2.01 256 2.03 189 2.03  42 3.23 331 3.38
                           321 3.42 368 3.43 384 3.44 372 3.44 386 3.49
 399  0.757  0.503  0.596- 285 1.83 292 1.91 228 1.98 254 1.98 187 2.06 209 2.13 349 3.36 365 3.41
                           363 3.49 380 3.49 323 3.53 370 3.55
 400  0.752  0.752  0.591- 227 1.84 283 1.86 186 1.97 293 1.97 208 2.05 250 2.38  28 3.13 362 3.31
                           325 3.35 364 3.44 380 3.46 365 3.53 379 3.55
 401  0.754  0.248  0.594- 284 1.84 190 1.94 231 1.98 253 1.99 294 2.00 206 2.15   3 3.05 335 3.34
                           370 3.39 383 3.42 363 3.42 324 3.42 371 3.51
 402  0.749  0.002  0.604- 295 1.80 251 1.80 286 1.99 207 2.02 230 2.21 185 2.27 379 3.35 371 3.39
                           383 3.43 364 3.45 332 3.55 322 3.56
 403  0.084  0.248  0.604- 301 1.79 296 1.80 203 1.99 211 2.03 196 2.18 237 2.25 378 3.34 315 3.45
                           377 3.48 381 3.50 327 3.52 337 3.53
 404  0.081  0.500  0.604- 300 1.79 298 1.80 198 1.95 214 2.05 195 2.23 236 2.23 373 3.36 381 3.44
                           378 3.47 317 3.48 382 3.55 328 3.61
 405  0.080  0.751  0.603- 313 1.79 305 1.80 199 1.94 212 2.16 235 2.18 194 2.22 373 3.33 366 3.42
                           374 3.43 336 3.47 330 3.60 382 3.65
 406  0.083  0.998  0.603- 304 1.80 299 1.80 202 2.00 210 2.02 192 2.18 238 2.22 315 3.43 366 3.45
                           374 3.45 377 3.46 326 3.51 338 3.52
 407  0.918  0.751  0.603- 261 1.79 307 1.80 199 1.96 283 2.09 217 2.18 240 2.23 365 3.33 366 3.40
                           364 3.47 336 3.48 362 3.59 382 3.67
 408  0.411  0.498  0.593- 204 1.85 188 1.88 233 1.90 303 2.07 247 2.10 291 2.16 318 3.35 368 3.38
                           369 3.42 333 3.50 375 3.54 386 3.59
 409  0.920  0.248  0.603- 281 1.79 260 1.80 203 1.95 284 2.12 242 2.17 153 2.21 363 3.39 315 3.43
                           381 3.45 383 3.47 337 3.48 335 3.59
 410  0.918  0.626  0.506- 218 1.84 240 1.85  75 1.94 273 2.05  83 2.10  64 2.11 317 3.39 336 3.39
                           349 3.42 362 3.43 365 3.44 340 3.55 316 3.59
 411  0.917  0.875  0.507- 217 1.84 239 1.84  77 1.98 274 2.01  70 2.11  63 2.12 362 3.37 336 3.40
                           338 3.40 332 3.41 341 3.58 339 3.59 364 3.91 366 3.96
 412  0.083  0.875  0.507- 192 1.84 235 1.85  77 1.96 183 2.03  60 2.11 143 2.11 330 3.37 336 3.40
                           338 3.41 326 3.44 341 3.57 353 3.60 374 3.89 366 3.98
 413  0.081  0.626  0.506- 236 1.84 194 1.86  75 1.93 278 2.07  59 2.09 142 2.10 336 3.38 373 3.39
                           317 3.39 328 3.43 330 3.43 340 3.53 352 3.59
 414  0.417  0.626  0.501-  57 1.91  80 1.92 189 1.93 146 1.99 272 1.99 233 2.12 321 3.40 368 3.44
                           356 3.45 344 3.45 331 3.45 386 3.45 333 3.46 318 3.48
 415  0.416  0.374  0.501- 145 1.91  81 1.94  58 1.96 270 1.97 232 1.98 188 2.06 343 3.43 318 3.44
                           355 3.44 333 3.45 334 3.46 319 3.48 375 3.49 369 3.49
 416  0.416  0.122  0.503- 234 1.83  76 1.95 144 1.96 197 1.98 193 2.03  68 2.09 320 3.33 329 3.38
                           334 3.46 319 3.47 342 3.48 354 3.51 376 3.68 367 3.87
 417  0.751  0.879  0.503- 185 1.82 274 1.95  52 1.95 297 2.00 227 2.03 151 2.09 332 3.36 322 3.38
                           325 3.48 362 3.48 339 3.48 350 3.50 379 3.71 364 3.96
 418  0.249  0.124  0.507- 226 1.84 184 1.87 181 1.96  76 2.01 152 2.11  51 2.13 319 3.36 326 3.38
                           327 3.39 320 3.40 360 3.57 342 3.60 367 3.77 377 3.95
 419  0.248  0.625  0.503- 278 1.90 224 1.91 215 1.97  69 1.99 155 1.99  80 2.08 318 3.42 328 3.42
                           330 3.45 352 3.45 368 3.46 321 3.48 344 3.51 373 3.63
 420  0.247  0.373  0.503- 225 1.85 277 1.90 154 1.97 213 1.98  65 2.06  81 2.08 369 3.29 327 3.37
                           319 3.42 351 3.44 328 3.45 318 3.46 343 3.53 378 3.71
 421  0.082  0.375  0.506- 237 1.84 195 1.84  74 1.96 277 2.02 141 2.10  61 2.11 337 3.39 328 3.39
                           317 3.42 327 3.46 361 3.55 351 3.59 378 3.61 381 4.00
 422  0.753  0.375  0.503- 275 1.90 187 1.92 231 1.98  54 1.99 149 2.00  82 2.06 370 3.36 349 3.41
                           323 3.41 335 3.45 359 3.45 324 3.50 347 3.52 363 3.65
 423  0.751  0.122  0.505- 230 1.84 190 1.94 276 1.95  79 2.01 148 2.02  55 2.11 332 3.36 322 3.38
                           324 3.43 335 3.46 358 3.53 346 3.55 371 3.79 383 3.96
 424  0.416  0.877  0.504- 191 1.84 229 1.96  78 1.97 271 1.98  56 2.00 147 2.09 329 3.37 320 3.40
                           331 3.41 321 3.42 345 3.52 357 3.52 372 3.54 384 3.75
 425  0.249  0.878  0.502- 246 1.84 183 1.93  89 1.94  78 2.01 156 2.07 223 2.07 326 3.37 320 3.39
                           353 3.46 330 3.47 321 3.49 345 3.49 372 3.61 374 4.00
 426  0.583  0.123  0.505- 222 1.84 216 1.93  79 1.97 197 1.99  92 2.02  71 2.09 322 3.37 334 3.39
                           329 3.40 324 3.41 354 3.53 346 3.54 376 3.64 371 3.74
 427  0.584  0.627  0.501-  87 1.91 245 1.92  90 1.94 272 1.98  91 1.99 219 2.09 386 3.36 325 3.39
                           380 3.41 331 3.42 348 3.43 356 3.44 333 3.45 323 3.48
 428  0.584  0.373  0.502- 221 1.89  82 1.94 158 1.95 270 1.99  88 2.02 244 2.05 375 3.40 334 3.42
                           324 3.43 333 3.43 370 3.44 323 3.46 347 3.47 355 3.48
 429  0.918  0.374  0.506- 153 1.85 243 1.85  74 1.94 275 2.04  67 2.09  84 2.10 337 3.39 317 3.41
                           349 3.42 335 3.43 363 3.52 361 3.54 359 3.59 381 4.00
 430  0.918  0.125  0.507- 182 1.84 242 1.85  72 1.97 276 2.01  66 2.11  85 2.12 335 3.37 338 3.40
                           332 3.41 337 3.42 385 3.57 358 3.59 315 3.91 383 3.93
 431  0.584  0.876  0.506- 241 1.84 220 1.91 297 1.97 271 1.99  86 2.06  73 2.10 331 3.38 325 3.38
                           322 3.39 329 3.40 350 3.55 357 3.56 379 3.60 384 3.69
 432  0.752  0.624  0.503- 273 1.90 228 1.96 186 1.96  53 1.98 150 1.99  90 2.05 380 3.40 349 3.41
                           323 3.42 316 3.45 362 3.46 325 3.51 348 3.51 365 3.67
[...]
  273            m_sumb_d                              0.380876                       42   5
  274          m_sumb_d                              0.000695                          7   4
  275        setdij_                               5.438625                          140   3
  276          m_sumb_d                              1.460904                        140   4
  277        set_dd_magatom                        0.000022                            7   3
  278        set_dd_paw                            0.086350                            7   3
  279          set_rsgf_all                          0.000014                          7   4
  280          m_sumb_d                              0.073441                         49   4
  281        strkin                                0.040475                            7   3
  282          m_sumb_d                              0.003700                          7   4
  283        strelo                                0.040853                            7   3
  284          m_sumb_d                              0.004139                         14   4
  285        strnlr                               47.732409                            7   3
  286          rspher_all                            2.271293                         63   4
  287          phaser                                0.000036                         63   4
  288          rpro_isp                             44.976606                         63   4
  289            fftwav_mpi                           34.286863                     8820   5
  290              fft3d_mpi                            30.708547                   8820   6
  291                fftbrc_mpi                           26.231348                 8820   7
  292                  fftbas_plan_mpi                      26.202540               8820   8
  293                    dfftw_execute                        13.339271            26460   9
  294                    map_forward                           7.496945            17640   9
  295                      map_gather                            0.757208           8820  10
  296                      m_alltoallv_z                         2.713700           8820  10
  297                      map_scatter                           1.623197           8820  10
  298            rpromu                               10.617184                     2205   5
  299              rpromu_gemm                           3.400287                 502740   6
  300              m_sumb_d                              1.111895                   8820   6
  301          m_sumb_d                              0.337030                          7   4
  302        m_sumb_d                              0.024618                           49   3
  303        fft3d_mpi                             4.677506                          497   3
  304          fftbrc_mpi                            4.553359                        497   4
  305            fftbas_plan_mpi                       4.551286                      497   5
  306              dfftw_execute                         0.616744                   1491   6
  307              map_forward                           2.181959                    490   6
  308                map_gather                            0.031422                  245   7
  309                m_alltoallv_z                         1.998912                  245   7
  310                map_scatter                           0.147265                  245   7
  311              map_backward                          1.401590                    504   6
  312                map_gather                            0.122034                  252   7
  313                m_alltoallv_z                         1.202828                  252   7
  314                map_scatter                           0.071548                  252   7
  315        ggaall_grid                           1.339873                            7   3
  316        forhar                                2.868306                            7   3
  317          m_sumb_d                              0.049921                          7   4
  318        strehar                               0.044075                            7   3
  319          m_sumb_d                              0.004488                          7   4
  320        m_bcast_d                             0.005956                           14   3
  321      potlok                               74.550290                             13   2
  322        fft3d_mpi                            29.503025                         2741   3
  323          fftbrc_mpi                           28.808776                       2741   4
  324            fftbas_plan_mpi                      28.798970                     2741   5
  325              dfftw_execute                         3.490339                   8223   6
  326              map_forward                          12.376486                   2754   6
  327                map_gather                            0.184324                 1390   7
  328                m_alltoallv_z                        11.325698                 1390   7
  329                map_scatter                           0.840478                 1390   7
  330              map_backward                         10.962516                   2728   6
  331                map_gather                            0.680444                 1364   7
  332                m_alltoallv_z                         9.877921                 1364   7
  333                map_scatter                           0.376765                 1364   7
  334        ggaall_grid                          19.167370                          237   3
  335        m_sumb_d                              0.303086                         1224   3
  336        fewald                                0.019045                           26   3
  337          rsp                                   0.017592                         26   4
  338          rcp                                   0.001238                         26   4
  339        pothar                                0.022218                           13   3
  340          m_sumb_d                              0.015854                         13   4
  341        m_bcast_d                             0.047572                           13   3
  342      potlok_metagga                        0.000018                             13   2
  343      set_dd_magatom                        0.000006                              7   2
  344      set_dd_paw                            0.162154                             13   2
  345        set_rsgf_all                          0.000103                           13   3
  346        m_sumb_d                              0.158794                           91   3
  347      m_sumb_d                             65.921762                           3518   2
  348      wavpre_noio                           1.655360                              6   2
  349        stufak                                1.574025                            6   3
  350      eddiag                              133.264950                              6   2
  351        overl                                 0.008060                            6   3
  352        redis_proj                            0.906803                           18   3
  353          m_alltoall_d                          0.899410                       2520   4
  354        fftwav_mpi                            3.439972                          840   3
  355          fft3d_mpi                             3.093911                        840   4
  356            fftbrc_mpi                            2.645999                      840   5
  357              fftbas_plan_mpi                       2.643253                    840   6
  358                dfftw_execute                         1.267962                 2520   7
  359                map_forward                           0.873810                 1680   7
  360                  map_gather                            0.076522                840   8
  361                  m_alltoallv_z                         0.407174                840   8
  362                  map_scatter                           0.155159                840   8
  363        hamilt_local                          2.969833                          840   3
  364          vhamil                                0.389914                        840   4
  365          kinhamil                              2.572767                        840   4
  366            fftext_mpi                            2.542726                      840   5
  367              fft3d_mpi                             2.485658                    840   6
  368                fftbrc_mpi                            2.091032                  840   7
  369                  fftbas_plan_mpi                       2.088023                840   8
  370                    dfftw_execute                         1.095604             2520   9
  371                    map_backward                          0.505709             1680   9
  372                      map_gather                            0.136383            840  10
  373                      m_alltoallv_z                         0.241512            840  10
  374                      map_scatter                           0.114210            840  10
  375        redis_pw                              1.788524                          846   3
  376          m_alltoall_d                          1.728070                       2520   4
  377        orth1                                 1.716066                          420   3
  378        m_sumb_d                              1.418676                            6   3
  379        shift_bands_between_low_high          0.000009                            6   3
  380        lincom                                1.815172                            6   3
 
 Flat profile
 ============
 
             routine name                   CPU           calls
 ---------------------------------------------------------------
 edwav                                3393.490587         320
 potlok                                594.992091         333
 total_time                            493.967920           1
 m_alltoall_d                          331.471282      777420
 m_sumb_d                              307.602673      331976
 dfftw_execute                         275.516469      581700
 lincom                                251.413093         980
 m_alltoallv_z                         232.240916      194560
 eddiag                                228.894815         173
 orth1                                 158.193995       46200
 fftbas_plan_mpi                       122.442627      193900
 choleski                              113.090918         327
 fft3d_mpi                              90.014949      193900
 ggaall_grid                            81.745618         564
 fftwav_mpi                             48.472469      120019
 eccp                                   43.296621       89600
 map_scatter                            40.651809      194560
 racc0                                  33.863017       22400
 map_forward                            33.583171      266980
 rpro1                                  32.056250       22400
 map_gather                             26.325371      194560
 pw_charge                              16.913352       38259
 m_bcast_z                              16.699188        2381
 setdij_                                14.939578         516
 force_and_stress                       12.680700           7
 vhamil                                 11.325140       24220
 augmentation_charge                    10.429340         327
 rpromu                                  8.811120        3185
 w1_dscal                                7.185036       22400
 redis_pw                                5.023046       92247
 rpromu_gemm                             4.898167      726180
 fftext_mpi                              3.289623       46620
 orthch                                  3.259699         327
 rspher_all                              3.240438          92
 forloc                                  2.834513           7
 forhar                                  2.818385           7
 redis_proj                              2.295433       70780
 stufak                                  1.839434           7
 elmin_all                               1.447271           7
 m_bcast_d                               1.433342         363
 overl                                   1.418563       23060
 map_backward                            1.033439      120820
 kinhamil                                0.809863       24220
 soft_charge                             0.734529         327
 densta                                  0.621480         328
 fftbrc_mpi                              0.616388      193900
 rsp                                     0.507325         673
 depsum                                  0.367306         327
 hamilt_local                            0.192553       24220
 pothar                                  0.167252         333
 strnlr                                  0.147444           7
 rpro_isp                                0.131360          91
 set_dd_paw                              0.120276         340
 set_charge                              0.082247         327
 wavpre_noio                             0.081335           6
 fewald                                  0.060968         673
 fft_gq                                  0.054251         327
 fornlr                                  0.039776           7
 strehar                                 0.039587           7
 rcp                                     0.038976         673
 strkin                                  0.036775           7
 strelo                                  0.036714           7
 redis_pw_all                            0.002143         320
 fordep                                  0.001832           7
 redis_pw_over_bands                     0.001289         333
 set_rsgf_all                            0.000934         340
 brgrid                                  0.000877           1
 potlok_metagga                          0.000416         333
 crpa_reader                             0.000267           1
 phaser                                  0.000167         251
 proall                                  0.000086           7
 rotate_active_occupied_orbital          0.000060           7
 vectorpot                               0.000033           1
 set_dd_magatom                          0.000028          14
 shift_bands_between_low_high            0.000015          13
 ---------------------------------------------------------------
  summed up times    7072.03601765633     
 
 Accumulative profile
 ====================
 
             routine name                   CPU           calls
 ---------------------------------------------------------------
 total_time                           7069.627236           1
 elmin_all                            6167.299920           7
 edwav                                4882.288628         320
 potlok                                924.911553         333
 fft3d_mpi                             820.016357      193900
 fftbrc_mpi                            730.001408      193900
 fftbas_plan_mpi                       729.385020      193900
 fftwav_mpi                            475.439017      120019
 orthch                                380.785634         327
 eddiag                                358.515635         173
 m_alltoall_d                          331.471282      777420
 m_sumb_d                              307.602673      331976
 dfftw_execute                         275.516469      581700
 lincom                                251.413093         980
 m_alltoallv_z                         232.240916      194560
 map_forward                           210.001704      266980
 set_charge                            188.985209         327
 redis_proj                            176.589029       70780
 soft_charge                           173.269245         327
 redis_pw                              162.200732       92247
 orth1                                 158.193995       46200
 fftext_mpi                            141.283092       46620
 map_backward                          123.833003      120820
 choleski                              113.090918         327
 force_and_stress                       95.401606           7
 hamilt_local                           85.660939       24220
 ggaall_grid                            81.745618         564
 kinhamil                               74.143246       24220
 rpro_isp                               65.019487          91
 eccp                                   48.798584       89600
 strnlr                                 47.732409           7
 racc0                                  46.588052       22400
 map_scatter                            40.651809      194560
 rpro1                                  36.478243       22400
 redis_pw_over_bands                    26.816045         333
 redis_pw_all                           26.814755         320
 map_gather                             26.325371      194560
 setdij_                                20.790079         516
 pw_charge                              16.913352       38259
 m_bcast_z                              16.699188        2381
 fornlr                                 15.962250           7
 rpromu                                 15.330238        3185
 augmentation_charge                    15.037318         327
 vhamil                                 11.325140       24220
 w1_dscal                                7.185036       22400
 set_dd_paw                              5.136492         340
 proall                                  5.053342           7
 rpromu_gemm                             4.898167      726180
 densta                                  4.614216         328
 rspher_all                              3.240438          92
 forloc                                  2.889837           7
 forhar                                  2.868306           7
 stufak                                  1.839434           7
 fft_gq                                  1.710759         327
 wavpre_noio                             1.655360           6
 fordep                                  1.569751           7
 m_bcast_d                               1.433342         363
 overl                                   1.418563       23060
 pothar                                  0.901120         333
 fewald                                  0.827555         673
 depsum                                  0.596400         327
 rsp                                     0.507325         673
 strehar                                 0.044075           7
 strelo                                  0.040853           7
 strkin                                  0.040475           7
 rcp                                     0.038976         673
 set_rsgf_all                            0.000934         340
 brgrid                                  0.000877           1
 potlok_metagga                          0.000416         333
 crpa_reader                             0.000267           1
 phaser                                  0.000167         251
 rotate_active_occupied_orbital          0.000060           7
 vectorpot                               0.000033           1
 set_dd_magatom                          0.000028          14
 shift_bands_between_low_high            0.000015          13
 ---------------------------------------------------------------
 
Profiling took   4.991818  1.729174  0.007417  0.006653 seconds
Profiling took   5.738979 seconds
