 vasp.6.3.2 27Jun22 (build Jan 03 2024 23:25:20) gamma-only                     
  
 executed on           IFC15_impi date 2024.02.02  12:55:18
 running  512 mpi-ranks, with    1 threads/rank
 distrk:  each k-point on  512 cores,    1 groups
 distr:  one band on NCORE=  32 cores,   16 groups


--------------------------------------------------------------------------------------------------------


 INCAR:
   ENCUT = 500.000000
   SIGMA = 0.010000
   EDIFF = 1.00e-05
   ALGO = A
   ISMEAR = 0
   NELM = 2000
   NSW = 500
   NCORE = 32
   LCHARG = .FALSE.
   LWAVE = .FALSE.
   LREAL = Auto
   IBRION = 2
   EDIFFG = -0.05
   GGA = BF
   LUSE_VDW = .TRUE.
   ZAB_VDW = -1.8867
   LBEEFENS = .TRUE.
   DIPOL = 0.5 0.5 0.65
   IDIPOL = 3
   LDIPOL = .TRUE.

 POTCAR:    PAW_PBE Au 04Oct2007                  
 POTCAR:    PAW_PBE C 08Apr2002                   
 POTCAR:    PAW_PBE H 15Jun2001                   
 POTCAR:    PAW_PBE O 08Apr2002                   
 POTCAR:    PAW_PBE Sr_sv 07Sep2000               
 POTCAR:    PAW_PBE Ti_sv 26Sep2005               
 -----------------------------------------------------------------------------
|                                                                             |
|               ----> ADVICE to this user running VASP <----                  |
|                                                                             |
|     You have switched on vdW-DFT.                                           |
|     This routine was written and supplied by Jiri Klimes. We recommend      |
|     that you carefully read and cite the following publications:            |
|       J. Klimes, D.R. Bowler, A. Michelides                                 |
|          J. Phys.: Cond Matt. 22 022201 (2010)                              |
|       J. Klimes, D.R. Bowler, A. Michelides                                 |
|          Phys. Rev. B. 83, 195131 (2011)                                    |
|     and references therein.                                                 |
|                                                                             |
 -----------------------------------------------------------------------------

 POTCAR:    PAW_PBE Au 04Oct2007                  
   SHA256 =  d0044ae04e2bdce24051b198fc5c053d722a5bc6fe3c3b100514a13fc5d2db88 Au/POTCAR             
   COPYR  = (c) Copyright 04Oct2007 Georg Kresse                                                    
   COPYR  = This file is part of the software VASP. Any use, copying, and all other rights are regul
   COPYR  = If you do not have a valid VASP license, you may not use, copy or distribute this file. 
   VRHFIN =Au: s1d10                                                                                
   LEXCH  = PE                                                                                      
   EATOM  =   926.0867 eV,   68.0654 Ry                                                             
                                                                                                    
   TITEL  = PAW_PBE Au 04Oct2007                                                                    
   LULTRA =        F    use ultrasoft PP ?                                                          
   IUNSCR =        1    unscreen: 0-lin 1-nonlin 2-no                                               
   RPACOR =    2.330    partial core radius                                                         
   POMASS =  196.966; ZVAL   =   11.000    mass and valenz                                          
   RCORE  =    2.500    outmost cutoff radius                                                       
   RWIGS  =    2.840; RWIGS  =    1.503    wigner-seitz radius (au A)                               
   ENMAX  =  229.943; ENMIN  =  172.457 eV                                                          
   ICORE  =        3    local potential                                                             
   LCOR   =        T    correct aug charges                                                         
   LPAW   =        T    paw PP                                                                      
   EAUG   =  356.670                                                                                
   DEXC   =    0.000                                                                                
   RMAX   =    2.562    core radius for proj-oper                                                   
   RAUG   =    1.300    factor for augmentation sphere                                              
   RDEP   =    2.598    radius for radial grids                                                     
   RDEPT  =    2.193    core radius for aug-charge                                                  
                                                                                                    
   Atomic configuration                                                                             
   16 entries                                                                                       
     n  l   j            E        occ.                                                              
     1  0  0.50    -80748.5001   2.0000                                                             
     2  0  0.50    -14244.7466   2.0000                                                             
     2  1  1.50    -12310.9591   6.0000                                                             
     3  0  0.50     -3362.1768   2.0000                                                             
     3  1  1.50     -2801.5463   6.0000                                                             
     3  2  2.50     -2203.8206  10.0000                                                             
     4  0  0.50      -729.8168   2.0000                                                             
     4  1  1.50      -546.0527   6.0000                                                             
     4  2  2.50      -325.7302  10.0000                                                             
     4  3  3.50       -81.1472  14.0000                                                             
     5  0  0.50      -108.3201   2.0000                                                             
     5  1  1.50       -59.7479   6.0000                                                             
     5  2  2.50        -6.8783  10.0000                                                             
     6  0  0.50        -5.7602   1.0000                                                             
     6  1  1.50        -6.8029   0.0000                                                             
     5  3  2.50        -1.3606   0.0000                                                             
   Description                                                                                      
     l       E           TYP  RCUT    TYP  RCUT                                                     
     2     -6.8782861     23  2.500                                                                 
     2     -8.2388687     23  2.500                                                                 
     0     -5.7601759     23  2.500                                                                 
     0     -0.8493231     23  2.500                                                                 
     1     -2.7211652     23  2.500                                                                 
     1     27.2116520     23  2.500                                                                 
     3     -1.3605826     23  2.500                                                                 
  local pseudopotential read in
  partial core-charges read in
  partial kinetic energy density read in
  atomic valenz-charges read in
  non local Contribution for L=           2  read in
    real space projection operators read in
  non local Contribution for L=           2  read in
    real space projection operators read in
  non local Contribution for L=           0  read in
    real space projection operators read in
  non local Contribution for L=           0  read in
    real space projection operators read in
  non local Contribution for L=           1  read in
    real space projection operators read in
  non local Contribution for L=           1  read in
    real space projection operators read in
    PAW grid and wavefunctions read in
 
   number of l-projection  operators is LMAX  =           6
   number of lm-projection operators is LMMAX =          18
 
 POTCAR:    PAW_PBE C 08Apr2002                   
   SHA256 =  253f7b50bb8d59471dbedb8285d89021f4a42ed1a2c5d38a03a736e69125dd95 C/POTCAR              
   COPYR  = (c) Copyright 08Apr2002 Georg Kresse                                                    
   COPYR  = This file is part of the software VASP. Any use, copying, and all other rights are regul
   COPYR  = If you do not have a valid VASP license, you may not use, copy or distribute this file. 
   VRHFIN =C: s2p2                                                                                  
   LEXCH  = PE                                                                                      
   EATOM  =   147.1560 eV,   10.8157 Ry                                                             
                                                                                                    
   TITEL  = PAW_PBE C 08Apr2002                                                                     
   LULTRA =        F    use ultrasoft PP ?                                                          
   IUNSCR =        1    unscreen: 0-lin 1-nonlin 2-no                                               
   RPACOR =    1.200    partial core radius                                                         
   POMASS =   12.011; ZVAL   =    4.000    mass and valenz                                          
   RCORE  =    1.500    outmost cutoff radius                                                       
   RWIGS  =    1.630; RWIGS  =    0.863    wigner-seitz radius (au A)                               
   ENMAX  =  400.000; ENMIN  =  300.000 eV                                                          
   ICORE  =        2    local potential                                                             
   LCOR   =        T    correct aug charges                                                         
   LPAW   =        T    paw PP                                                                      
   EAUG   =  644.873                                                                                
   DEXC   =    0.000                                                                                
   RMAX   =    1.529    core radius for proj-oper                                                   
   RAUG   =    1.300    factor for augmentation sphere                                              
   RDEP   =    1.501    radius for radial grids                                                     
   RDEPT  =    1.300    core radius for aug-charge                                                  
                                                                                                    
   Atomic configuration                                                                             
    4 entries                                                                                       
     n  l   j            E        occ.                                                              
     1  0  0.50      -273.3789   2.0000                                                             
     2  0  0.50       -13.7508   2.0000                                                             
     2  1  0.50        -5.2854   2.0000                                                             
     3  2  1.50        -5.4423   0.0000                                                             
   Description                                                                                      
     l       E           TYP  RCUT    TYP  RCUT                                                     
     0    -13.7508458     23  1.200                                                                 
     0     -8.2022199     23  1.200                                                                 
     1     -5.2854383     23  1.500                                                                 
     1     34.0145650     23  1.500                                                                 
     2     -5.4423304      7  1.500                                                                 
  local pseudopotential read in
  partial core-charges read in
  partial kinetic energy density read in
  atomic valenz-charges read in
  non local Contribution for L=           0  read in
    real space projection operators read in
  non local Contribution for L=           0  read in
    real space projection operators read in
  non local Contribution for L=           1  read in
    real space projection operators read in
  non local Contribution for L=           1  read in
    real space projection operators read in
    PAW grid and wavefunctions read in
 
   number of l-projection  operators is LMAX  =           4
   number of lm-projection operators is LMMAX =           8
 
 POTCAR:    PAW_PBE H 15Jun2001                   
   SHA256 =  030f79b5d3ab3cf0e668861823c8fb652ff669f3e15e46930bd03bfd63a607b6 H/POTCAR              
   COPYR  = (c) Copyright 15Jun2001 Georg Kresse                                                    
   COPYR  = This file is part of the software VASP. Any use, copying, and all other rights are regul
   COPYR  = If you do not have a valid VASP license, you may not use, copy or distribute this file. 
   VRHFIN =H: ultrasoft test                                                                        
   LEXCH  = PE                                                                                      
   EATOM  =    12.4884 eV,    0.9179 Ry                                                             
                                                                                                    
   TITEL  = PAW_PBE H 15Jun2001                                                                     
   LULTRA =        F    use ultrasoft PP ?                                                          
   IUNSCR =        0    unscreen: 0-lin 1-nonlin 2-no                                               
   RPACOR =    0.000    partial core radius                                                         
   POMASS =    1.000; ZVAL   =    1.000    mass and valenz                                          
   RCORE  =    1.100    outmost cutoff radius                                                       
   RWIGS  =    0.700; RWIGS  =    0.370    wigner-seitz radius (au A)                               
   ENMAX  =  250.000; ENMIN  =  200.000 eV                                                          
   RCLOC  =    0.701    cutoff for local pot                                                        
   LCOR   =        T    correct aug charges                                                         
   LPAW   =        T    paw PP                                                                      
   EAUG   =  400.000                                                                                
   RMAX   =    1.123    core radius for proj-oper                                                   
   RAUG   =    1.200    factor for augmentation sphere                                              
   RDEP   =    1.112    radius for radial grids                                                     
   RDEPT  =    0.926    core radius for aug-charge                                                  
                                                                                                    
   Atomic configuration                                                                             
    2 entries                                                                                       
     n  l   j            E        occ.                                                              
     1  0  0.50        -6.4927   1.0000                                                             
     2  1  0.50        -3.4015   0.0000                                                             
   Description                                                                                      
     l       E           TYP  RCUT    TYP  RCUT                                                     
     0     -6.4927494     23  1.100                                                                 
     0      6.8029130     23  1.100                                                                 
     1     -4.0817478     23  1.100                                                                 
  local pseudopotential read in
  atomic valenz-charges read in
  non local Contribution for L=           0  read in
    real space projection operators read in
  non local Contribution for L=           0  read in
    real space projection operators read in
  non local Contribution for L=           1  read in
    real space projection operators read in
    PAW grid and wavefunctions read in
 
   number of l-projection  operators is LMAX  =           3
   number of lm-projection operators is LMMAX =           5
 
 POTCAR:    PAW_PBE O 08Apr2002                   
   SHA256 =  818f92134a0a090dccd8ba1447fa70422a3b330e708bb4f08108d8ae51209ddf O/POTCAR              
   COPYR  = (c) Copyright 08Apr2002 Georg Kresse                                                    
   COPYR  = This file is part of the software VASP. Any use, copying, and all other rights are regul
   COPYR  = If you do not have a valid VASP license, you may not use, copy or distribute this file. 
   VRHFIN =O: s2p4                                                                                  
   LEXCH  = PE                                                                                      
   EATOM  =   432.3788 eV,   31.7789 Ry                                                             
                                                                                                    
   TITEL  = PAW_PBE O 08Apr2002                                                                     
   LULTRA =        F    use ultrasoft PP ?                                                          
   IUNSCR =        1    unscreen: 0-lin 1-nonlin 2-no                                               
   RPACOR =    1.200    partial core radius                                                         
   POMASS =   16.000; ZVAL   =    6.000    mass and valenz                                          
   RCORE  =    1.520    outmost cutoff radius                                                       
   RWIGS  =    1.550; RWIGS  =    0.820    wigner-seitz radius (au A)                               
   ENMAX  =  400.000; ENMIN  =  300.000 eV                                                          
   ICORE  =        2    local potential                                                             
   LCOR   =        T    correct aug charges                                                         
   LPAW   =        T    paw PP                                                                      
   EAUG   =  605.392                                                                                
   DEXC   =    0.000                                                                                
   RMAX   =    1.553    core radius for proj-oper                                                   
   RAUG   =    1.300    factor for augmentation sphere                                              
   RDEP   =    1.550    radius for radial grids                                                     
   RDEPT  =    1.329    core radius for aug-charge                                                  
                                                                                                    
   Atomic configuration                                                                             
    4 entries                                                                                       
     n  l   j            E        occ.                                                              
     1  0  0.50      -514.6923   2.0000                                                             
     2  0  0.50       -23.9615   2.0000                                                             
     2  1  0.50        -9.0305   4.0000                                                             
     3  2  1.50        -9.5241   0.0000                                                             
   Description                                                                                      
     l       E           TYP  RCUT    TYP  RCUT                                                     
     0    -23.9615318     23  1.200                                                                 
     0     -9.5240782     23  1.200                                                                 
     1     -9.0304911     23  1.520                                                                 
     1      8.1634956     23  1.520                                                                 
     2     -9.5240782      7  1.500                                                                 
  local pseudopotential read in
  partial core-charges read in
  partial kinetic energy density read in
  kinetic energy density of atom read in
  atomic valenz-charges read in
  non local Contribution for L=           0  read in
    real space projection operators read in
  non local Contribution for L=           0  read in
    real space projection operators read in
  non local Contribution for L=           1  read in
    real space projection operators read in
  non local Contribution for L=           1  read in
    real space projection operators read in
    PAW grid and wavefunctions read in
 
   number of l-projection  operators is LMAX  =           4
   number of lm-projection operators is LMMAX =           8
 
 POTCAR:    PAW_PBE Sr_sv 07Sep2000               
   SHA256 =  a8389d3481648516ee67182ee030b298d280b37e29cbbf2d8595f040d757c710 Sr_sv/POTCAR          
   COPYR  = (c) Copyright 07Sep2000 Georg Kresse                                                    
   COPYR  = This file is part of the software VASP. Any use, copying, and all other rights are regul
   COPYR  = If you do not have a valid VASP license, you may not use, copy or distribute this file. 
   VRHFIN =Sr: 4s4p5s                                                                               
   LEXCH  = PE                                                                                      
   EATOM  =   843.0319 eV,   61.9611 Ry                                                             
                                                                                                    
   TITEL  = PAW_PBE Sr_sv 07Sep2000                                                                 
   LULTRA =        F    use ultrasoft PP ?                                                          
   IUNSCR =        1    unscreen: 0-lin 1-nonlin 2-no                                               
   RPACOR =    2.200    partial core radius                                                         
   POMASS =   87.620; ZVAL   =   10.000    mass and valenz                                          
   RCORE  =    2.500    outmost cutoff radius                                                       
   RWIGS  =    4.040; RWIGS  =    2.138    wigner-seitz radius (au A)                               
   ENMAX  =  229.353; ENMIN  =  172.014 eV                                                          
   RCLOC  =    2.201    cutoff for local pot                                                        
   LCOR   =        T    correct aug charges                                                         
   LPAW   =        T    paw PP                                                                      
   EAUG   =  366.804                                                                                
   DEXC   =    0.000                                                                                
   RMAX   =    2.547    core radius for proj-oper                                                   
   RAUG   =    1.300    factor for augmentation sphere                                              
   RDEP   =    2.562    radius for radial grids                                                     
   RDEPT  =    2.128    core radius for aug-charge                                                  
                                                                                                    
   Atomic configuration                                                                             
   10 entries                                                                                       
     n  l   j            E        occ.                                                              
     1  0  0.50    -15934.8930   2.0000                                                             
     2  0  0.50     -2157.6250   2.0000                                                             
     2  1  1.50     -1917.0034   6.0000                                                             
     3  0  0.50      -333.7288   2.0000                                                             
     3  1  1.50      -256.0992   6.0000                                                             
     3  2  2.50      -127.9971  10.0000                                                             
     4  0  0.50       -40.8953   2.0000                                                             
     5  0  0.50        -3.5257   1.9990                                                             
     4  1  1.50       -22.8179   6.0000                                                             
     4  2  1.50        -1.2815   0.0010                                                             
   Description                                                                                      
     l       E           TYP  RCUT    TYP  RCUT                                                     
     0    -40.8953213     23  2.480                                                                 
     0     -3.5257161     23  2.480                                                                 
     1    -22.8178632     23  2.500                                                                 
     1    -24.1784458     23  2.500                                                                 
     2     -1.2814598     23  2.500                                                                 
     2      0.2279365     23  2.500                                                                 
  local pseudopotential read in
  partial core-charges read in
  partial kinetic energy density read in
  atomic valenz-charges read in
  non local Contribution for L=           0  read in
    real space projection operators read in
  non local Contribution for L=           0  read in
    real space projection operators read in
  non local Contribution for L=           1  read in
    real space projection operators read in
  non local Contribution for L=           1  read in
    real space projection operators read in
  non local Contribution for L=           2  read in
    real space projection operators read in
  non local Contribution for L=           2  read in
    real space projection operators read in
    PAW grid and wavefunctions read in
 
   number of l-projection  operators is LMAX  =           6
   number of lm-projection operators is LMMAX =          18
 
 POTCAR:    PAW_PBE Ti_sv 26Sep2005               
   SHA256 =  4d747badb5a5ea28d858fbac70885b3f8929d6fd9e5b0dbe1ecb9878dc164da1 Ti_sv/POTCAR          
   COPYR  = (c) Copyright 26Sep2005 Georg Kresse                                                    
   COPYR  = This file is part of the software VASP. Any use, copying, and all other rights are regul
   COPYR  = If you do not have a valid VASP license, you may not use, copy or distribute this file. 
   VRHFIN =Ti: 3p4s3d                                                                               
   LEXCH  = PE                                                                                      
   EATOM  =  1588.0892 eV,  116.7213 Ry                                                             
                                                                                                    
   TITEL  = PAW_PBE Ti_sv 26Sep2005                                                                 
   LULTRA =        F    use ultrasoft PP ?                                                          
   IUNSCR =        1    unscreen: 0-lin 1-nonlin 2-no                                               
   RPACOR =    2.000    partial core radius                                                         
   POMASS =   47.880; ZVAL   =   12.000    mass and valenz                                          
   RCORE  =    2.300    outmost cutoff radius                                                       
   RWIGS  =    2.300; RWIGS  =    1.217    wigner-seitz radius (au A)                               
   ENMAX  =  274.610; ENMIN  =  205.957 eV                                                          
   ICORE  =        3    local potential                                                             
   LCOR   =        T    correct aug charges                                                         
   LPAW   =        T    paw PP                                                                      
   EAUG   =  482.848                                                                                
   RMAX   =    2.348    core radius for proj-oper                                                   
   RAUG   =    1.300    factor for augmentation sphere                                              
   RDEP   =    2.381    radius for radial grids                                                     
   RDEPT  =    1.930    core radius for aug-charge                                                  
                                                                                                    
   Atomic configuration                                                                             
    8 entries                                                                                       
     n  l   j            E        occ.                                                              
     1  0  0.50     -4865.3608   2.0000                                                             
     2  0  0.50      -533.1368   2.0000                                                             
     2  1  1.50      -440.5031   6.0000                                                             
     3  0  0.50       -59.3186   2.0000                                                             
     4  0  0.50        -3.7291   1.0000                                                             
     3  1  1.50       -35.7012   6.0000                                                             
     3  2  2.50        -1.9157   3.0000                                                             
     4  3  2.50        -1.3606   0.0000                                                             
   Description                                                                                      
     l       E           TYP  RCUT    TYP  RCUT                                                     
     0    -59.3185931     23  1.800                                                                 
     0     -3.7290822     23  2.300                                                                 
     1    -35.7012045     23  2.300                                                                 
     1     -1.3605826     23  2.300                                                                 
     2     -1.9156920     23  2.300                                                                 
     2     -0.0236318     23  2.300                                                                 
     3     -1.3605826     23  2.300                                                                 
  local pseudopotential read in
  partial core-charges read in
  partial kinetic energy density read in
  atomic valenz-charges read in
  non local Contribution for L=           0  read in
    real space projection operators read in
  non local Contribution for L=           0  read in
    real space projection operators read in
  non local Contribution for L=           1  read in
    real space projection operators read in
  non local Contribution for L=           1  read in
    real space projection operators read in
  non local Contribution for L=           2  read in
    real space projection operators read in
  non local Contribution for L=           2  read in
    real space projection operators read in
    PAW grid and wavefunctions read in
 
   number of l-projection  operators is LMAX  =           6
   number of lm-projection operators is LMMAX =          18
 
 Optimization of the real space projectors (new method)

 maximal supplied QI-value         = 15.12
 optimisation between [QCUT,QGAM] = [ 11.34, 22.83] = [ 36.00,145.93] Ry 
 Optimized for a Real-space Cutoff    1.39 Angstroem

   l    n(q)    QCUT    max X(q) W(low)/X(q) W(high)/X(q)  e(spline) 
   2      9    11.338    60.898    0.39E-03    0.42E-03    0.21E-06
   2      9    11.338    58.894    0.40E-03    0.42E-03    0.22E-06
   0      9    11.338   109.617    0.13E-03    0.20E-04    0.13E-06
   0      9    11.338    75.026    0.13E-03    0.20E-04    0.13E-06
   1      9    11.338    16.344    0.33E-04    0.24E-03    0.18E-06
   1      9    11.338    10.160    0.26E-04    0.19E-03    0.15E-06
 Optimization of the real space projectors (new method)

 maximal supplied QI-value         = 25.13
 optimisation between [QCUT,QGAM] = [ 11.31, 22.87] = [ 35.82,146.48] Ry 
 Optimized for a Real-space Cutoff    1.00 Angstroem

   l    n(q)    QCUT    max X(q) W(low)/X(q) W(high)/X(q)  e(spline) 
   0      7    11.310   115.676    0.43E-03    0.13E-02    0.19E-06
   0      7    11.310    87.132    0.43E-03    0.13E-02    0.18E-06
   1      6    11.310     4.429    0.42E-03    0.74E-03    0.11E-06
   1      6    11.310     2.733    0.34E-03    0.55E-03    0.92E-07
 Optimization of the real space projectors (new method)

 maximal supplied QI-value         = 34.20
 optimisation between [QCUT,QGAM] = [ 11.29, 22.57] = [ 35.68,142.71] Ry 
 Optimized for a Real-space Cutoff    1.16 Angstroem

   l    n(q)    QCUT    max X(q) W(low)/X(q) W(high)/X(q)  e(spline) 
   0      8    11.287    19.460    0.40E-03    0.73E-03    0.16E-06
   0      8    11.287    12.209    0.38E-03    0.70E-03    0.15E-06
   1      7    11.287     4.655    0.22E-03    0.25E-04    0.22E-06
 Optimization of the real space projectors (new method)

 maximal supplied QI-value         = 24.76
 optimisation between [QCUT,QGAM] = [ 11.39, 22.77] = [ 36.31,145.25] Ry 
 Optimized for a Real-space Cutoff    1.00 Angstroem

   l    n(q)    QCUT    max X(q) W(low)/X(q) W(high)/X(q)  e(spline) 
   0      7    11.387    20.381    0.39E-03    0.13E-02    0.15E-06
   0      7    11.387    15.268    0.42E-03    0.14E-02    0.17E-06
   1      6    11.387     5.964    0.41E-03    0.11E-02    0.17E-06
   1      6    11.387     5.382    0.39E-03    0.87E-03    0.15E-06
 Optimization of the real space projectors (new method)

 maximal supplied QI-value         = 15.12
 optimisation between [QCUT,QGAM] = [ 11.34, 22.83] = [ 36.00,145.93] Ry 
 Optimized for a Real-space Cutoff    1.56 Angstroem

   l    n(q)    QCUT    max X(q) W(low)/X(q) W(high)/X(q)  e(spline) 
   0     11    11.338    11.565    0.26E-04    0.80E-05    0.70E-07
   0     11    11.338    10.214    0.41E-04    0.15E-04    0.15E-06
   1     10    11.338   189.983    0.18E-03    0.52E-04    0.42E-06
   1     10    11.338   193.105    0.19E-03    0.52E-04    0.42E-06
   2     10    11.338   115.941    0.22E-03    0.42E-03    0.43E-06
   2     10    11.338    76.444    0.21E-03    0.41E-03    0.42E-06
 Optimization of the real space projectors (new method)

 maximal supplied QI-value         = 16.25
 optimisation between [QCUT,QGAM] = [ 11.38, 22.75] = [ 36.24,144.96] Ry 
 Optimized for a Real-space Cutoff    1.27 Angstroem

   l    n(q)    QCUT    max X(q) W(low)/X(q) W(high)/X(q)  e(spline) 
   0      9    11.376    12.277    0.53E-04    0.25E-04    0.25E-07
   0      9    11.376    11.419    0.89E-04    0.67E-05    0.35E-07
   1      8    11.376     4.010    0.13E-03    0.11E-03    0.29E-07
   1      8    11.376     6.182    0.94E-04    0.19E-03    0.11E-06
   2      8    11.376    47.177    0.13E-03    0.88E-03    0.24E-06
   2      8    11.376    42.437    0.13E-03    0.86E-03    0.23E-06
 -----------------------------------------------------------------------------
|                                                                             |
|               ----> ADVICE to this user running VASP <----                  |
|                                                                             |
|     You enforced a specific xc type in the INCAR file but a different       |
|     type was found in the POTCAR file.                                      |
|     I HOPE YOU KNOW WHAT YOU ARE DOING!                                     |
|                                                                             |
 -----------------------------------------------------------------------------

  PAW_PBE Au 04Oct2007                  :
 energy of atom  1       EATOM= -926.0867
 kinetic energy error for atom=    0.0042 (will be added to EATOM!!)
  PAW_PBE C 08Apr2002                   :
 energy of atom  2       EATOM= -147.1560
 kinetic energy error for atom=    0.0076 (will be added to EATOM!!)
  PAW_PBE H 15Jun2001                   :
 energy of atom  3       EATOM=  -12.4884
 kinetic energy error for atom=    0.0020 (will be added to EATOM!!)
  PAW_PBE O 08Apr2002                   :
 energy of atom  4       EATOM= -432.3788
 kinetic energy error for atom=    0.0224 (will be added to EATOM!!)
  PAW_PBE Sr_sv 07Sep2000               :
 energy of atom  5       EATOM= -843.0319
 kinetic energy error for atom=    0.0012 (will be added to EATOM!!)
  PAW_PBE Ti_sv 26Sep2005               :
 energy of atom  6       EATOM=-1588.0892
 kinetic energy error for atom=    0.0046 (will be added to EATOM!!)
 
 
 POSCAR: Au  C  H  O Sr Ti
  positions in direct lattice
  velocities in cartesian coordinates
 exchange correlation table for  LEXCH =       17
   RHO(1)=    0.500       N(1)  =     2000
   RHO(2)=  100.500       N(2)  =     4000

 VTST: version 4.1, (05/19/21)

 CHAIN: initializing optimizer
 
 OPT: Using VASP Conjugate-Gradient optimizer
 CHAIN: Read ICHAIN            0
 
 POSCAR: Au  C  H  O Sr Ti
  positions in direct lattice
  velocities in cartesian coordinates
 


--------------------------------------------------------------------------------------------------------


 ion  position               nearest neighbor table
   1  0.713  0.532  0.755-  46 2.70  45 2.74  50 2.78  14 2.78  48 2.81  22 2.91  16 3.15   7 3.53

   2  0.570  0.513  0.858-   4 2.75  45 2.83  22 2.85  35 2.87  17 2.91  21 2.94  37 3.04  29 3.60

   3  0.641  0.181  0.743-  52 2.07  27 2.77  33 2.87  49 3.12  26 3.24 331 4.26
   4  0.471  0.453  0.878-   2 2.75  43 2.76  21 2.77  10 2.80  37 2.80
   5  0.523  0.381  0.734-  35 2.84  36 2.85  19 2.87  26 2.87  34 2.88  37 2.89  16 3.07  33 3.24
                             8 3.25  43 3.36 347 4.18
   6  0.281  0.342  0.703- 177 2.07  41 2.77  11 2.83   8 2.92  31 3.04 370 3.55 344 4.03
   7  0.669  0.683  0.748-  23 2.62  46 2.66  30 2.74  45 2.75  44 3.05  50 3.08  18 3.39   1 3.53

   8  0.397  0.382  0.691- 133 2.03 182 2.13  41 2.79  42 2.90  19 2.91   6 2.92  11 3.08   5 3.25
                           370 3.39  40 3.51  34 3.60 347 3.82
   9  0.451  0.579  0.704- 152 2.11  29 2.69  34 2.70  13 2.73  18 2.88  19 2.88  42 3.03  35 3.53
                           353 3.67
  10  0.375  0.496  0.834-   4 2.80  25 2.81  12 2.84  11 2.86  19 2.87  21 2.89  43 3.07
  11  0.323  0.417  0.771-  41 2.80   6 2.83  10 2.86  25 2.87  31 2.93  42 2.97  43 3.01  19 3.04
                             8 3.08
  12  0.370  0.622  0.820-  32 2.75  21 2.77  10 2.84  39 2.88  25 2.92  20 2.96  29 3.39
  13  0.415  0.695  0.700- 184 2.04   9 2.73  20 2.78  38 2.78  47 2.99  18 3.02  28 3.07  32 3.58
                           338 4.02 353 4.12
  14  0.772  0.438  0.794-  48 2.72   1 2.78  24 2.82  22 2.93
  15  0.258  0.594  0.694- 161 2.04 146 2.11  32 2.69  31 2.85  25 2.88  42 2.97  28 3.52 338 3.56
                           346 3.70
  16  0.636  0.436  0.707- 174 2.27  26 2.85  48 2.85  24 2.93  35 2.94  50 2.98  22 3.07   5 3.07
                             1 3.15  34 3.23 350 3.69
  17  0.562  0.642  0.865-  45 2.76  30 2.82  21 2.82  39 2.84   2 2.91  29 3.00
  18  0.539  0.667  0.702- 175 2.11  29 2.75   9 2.88  50 2.94  44 2.95  13 3.02  47 3.17  30 3.18
                             7 3.39 353 3.48
  19  0.439  0.470  0.755-  35 2.80   5 2.87  10 2.87  43 2.88   9 2.88  42 2.89   8 2.91  34 2.93
                            11 3.04  29 3.60
  20  0.376  0.743  0.780-  32 2.75  13 2.78  38 2.78  39 2.81  47 2.82  12 2.96  28 3.20
  21  0.461  0.576  0.868-   4 2.77  12 2.77  17 2.82  10 2.89   2 2.94  29 2.95  39 2.97
  22  0.650  0.446  0.808-   2 2.85  24 2.85  37 2.86  35 2.88   1 2.91  14 2.93  16 3.07  45 3.27

  23  0.706  0.758  0.688- 124 2.04 162 2.06   7 2.62  44 2.78 394 3.11  46 3.20 343 3.78 342 4.19

  24  0.700  0.349  0.760-  51 2.13  14 2.82  33 2.85  26 2.85  22 2.85  48 2.91  16 2.93  49 3.30

  25  0.290  0.540  0.778-  32 2.81  10 2.81  31 2.82  11 2.87  15 2.88  12 2.92  42 2.93
  26  0.614  0.311  0.699- 187 2.04  33 2.73  24 2.85  16 2.85   5 2.87  27 2.87   3 3.24  49 3.54
                           350 3.63 347 4.27
  27  0.538  0.211  0.706- 145 2.11  36 2.76  40 2.77   3 2.77  26 2.87  33 3.32 339 3.72
  28  0.295  0.747  0.695- 146 2.06 163 2.06  32 2.75  38 2.80  13 3.07  20 3.20  15 3.52 349 4.15
                           338 4.17
  29  0.504  0.612  0.779-   9 2.69  18 2.75  39 2.81  35 2.86  21 2.95  17 3.00  45 3.08  30 3.09
                            12 3.39   2 3.60  19 3.60
  30  0.578  0.724  0.794-  47 2.73   7 2.74  17 2.82  44 2.83  39 3.03  29 3.09  18 3.18  45 3.23

  31  0.239  0.470  0.711- 147 2.12  42 2.67  25 2.82  15 2.85  11 2.93   6 3.04 344 4.20
  32  0.289  0.665  0.763-  15 2.69  12 2.75  20 2.75  28 2.75  25 2.81  13 3.58
  33  0.601  0.286  0.787-  26 2.73  37 2.80  36 2.84  24 2.85   3 2.87   5 3.24  27 3.32
  34  0.513  0.485  0.677- 174 2.11  76 2.14   9 2.70  35 2.79   5 2.88  19 2.93 438 3.12  16 3.23
                            50 3.29 347 3.53   8 3.60 353 4.00
  35  0.554  0.498  0.764-  34 2.79  19 2.80   5 2.84  29 2.86   2 2.87  22 2.88  50 2.92  16 2.94
                            45 2.95  37 3.19   9 3.53
  36  0.483  0.273  0.773-  27 2.76  40 2.82  33 2.84   5 2.85  41 2.86  43 2.90  37 3.36
  37  0.548  0.384  0.828-   4 2.80  33 2.80  22 2.86  43 2.88   5 2.89   2 3.04  35 3.19  36 3.36

  38  0.392  0.817  0.707- 120 2.08  13 2.78  20 2.78  28 2.80  47 2.82 349 3.67 356 4.10
  39  0.463  0.702  0.836-  20 2.81  29 2.81  17 2.84  12 2.88  21 2.97  47 3.01  30 3.03
  40  0.423  0.228  0.699- 132 2.01 182 2.13  41 2.75  27 2.77  36 2.82   8 3.51 339 4.11 328 4.17

  41  0.367  0.302  0.758-  40 2.75   6 2.77  43 2.78   8 2.79  11 2.80  36 2.86
  42  0.347  0.501  0.696- 152 2.11  31 2.67  19 2.89   8 2.90  25 2.93  15 2.97  11 2.97   9 3.03
                           338 4.12 370 4.24
  43  0.428  0.372  0.817-   4 2.76  41 2.78  37 2.88  19 2.88  36 2.90  11 3.01  10 3.07   5 3.36

  44  0.596  0.784  0.713- 183 2.09  23 2.78  30 2.83  47 2.88  18 2.95   7 3.05 343 4.16 356 4.35

  45  0.629  0.590  0.800-   1 2.74   7 2.75  17 2.76   2 2.83  35 2.95  50 2.96  29 3.08  30 3.23
                            22 3.27
  46  0.733  0.618  0.693- 154 2.09 162 2.13   7 2.66   1 2.70  50 2.83  23 3.20 342 3.39 329 3.70

  47  0.487  0.777  0.755-  30 2.73  38 2.82  20 2.82  44 2.88  13 2.99  39 3.01  18 3.17
  48  0.757  0.437  0.704- 185 2.00  14 2.72   1 2.81  16 2.85  24 2.91 324 3.79 350 4.05
  49  0.747  0.238  0.697-  51 2.02  52 2.06 141 2.07 125 2.19 433 3.00   3 3.12  24 3.30  26 3.54
                           331 4.16 340 4.17
  50  0.623  0.569  0.703- 160 2.07   1 2.78  46 2.83  35 2.92  18 2.94  45 2.96  16 2.98   7 3.08
                            34 3.29 342 3.68
  51  0.764  0.283  0.754-  53 1.09  54 1.09  49 2.02  24 2.13
  52  0.727  0.166  0.736-  55 1.09  56 1.09  49 2.06   3 2.07
  53  0.760  0.258  0.785-  51 1.09
  54  0.804  0.307  0.753-  51 1.09
  55  0.748  0.164  0.769-  52 1.09
  56  0.733  0.125  0.717-  52 1.09
  57  0.750  0.187  0.454- 449 1.98 447 2.10 332 2.79 381 2.79 360 2.80 372 2.85
  58  0.583  0.063  0.546- 401 1.84 440 2.23 378 2.70 366 2.70 339 2.96 331 3.05
  59  0.585  0.815  0.551- 403 1.92 443 2.07 368 2.78 367 2.80 343 2.91 356 3.01
  60  0.747  0.314  0.549- 448 1.93 433 2.05 350 2.63 360 2.74 372 2.87 324 3.01
  61  0.581  0.560  0.549- 438 1.90 426 2.08 353 2.70 359 2.74 342 2.83 363 2.87
  62  0.253  0.559  0.544- 452 1.91 430 2.05 374 2.63 326 2.79 338 2.86 346 3.18
  63  0.416  0.319  0.552- 437 1.95 425 1.98 347 2.71 370 2.72 391 2.97 362 2.98
  64  0.577  0.436  0.552- 438 1.95 419 2.04 347 2.62 359 2.75 350 3.00 363 3.01
  65  0.417  0.065  0.547- 454 1.84 431 2.26 361 2.74 378 2.76 339 2.93 328 3.05
  66  0.085  0.813  0.547- 457 1.85 462 2.17 365 2.67 390 2.73 348 3.16 334 3.37
  67  0.085  0.313  0.547- 451 1.84 442 2.24 379 2.71 389 2.74 344 2.91 341 3.34
  68  0.499  0.756  0.593- 456 1.95 443 2.04 367 2.66 356 2.73 353 2.94
  69  0.082  0.063  0.547- 445 1.84 463 2.21 388 2.70 376 2.71 371 3.21 345 3.29
  70  0.914  0.689  0.546- 459 1.85 464 2.24 323 2.66 390 2.72 329 2.84 336 3.41
  71  0.584  0.938  0.546- 403 1.84 440 2.23 366 2.69 378 2.70 343 2.93 356 3.07
  72  0.917  0.188  0.545- 404 1.85 460 2.18 372 2.67 389 2.69 340 3.18 371 3.31
  73  0.915  0.437  0.546- 399 1.85 407 2.23 357 2.67 358 2.69 324 2.99 341 3.37
  74  0.579  0.686  0.548- 426 1.93 443 2.11 353 2.65 367 2.71 342 2.81 368 2.86
  75  0.252  0.937  0.545- 408 1.83 434 2.23 361 2.68 376 2.74 349 2.92 348 3.28
  76  0.497  0.505  0.609- 461 2.09  34 2.14 438 2.27 353 2.71 347 3.01 359 3.25
  77  0.918  0.564  0.547- 459 1.85 407 2.23 358 2.69 357 2.75 329 2.87 336 3.28
  78  0.420  0.565  0.555- 461 1.90 455 2.13 353 2.67 338 2.70 359 2.92 374 3.03
  79  0.916  0.813  0.547- 458 1.84 464 2.17 323 2.68 390 2.71 325 3.24 334 3.37
  80  0.084  0.938  0.546- 457 1.84 463 2.19 376 2.67 388 2.69 348 3.24 334 3.41
  81  0.249  0.683  0.551- 452 1.96 436 1.97 338 2.74 346 2.88 365 2.89 377 2.93
  82  0.748  0.934  0.547- 427 1.83 441 2.23 366 2.74 382 2.79 343 2.94 325 3.22
  83  0.751  0.681  0.553- 394 1.95 402 1.97 342 2.64 329 2.86 323 2.96 368 2.99
  84  0.916  0.938  0.546- 458 1.84 439 2.17 382 2.67 388 2.70 325 3.26 334 3.40
  85  0.418  0.065  0.640- 431 1.80 328 2.52 339 2.54
  86  0.583  0.937  0.454- 417 1.99 403 2.06 327 2.79 351 2.81 378 2.84 366 2.88
  87  0.253  0.813  0.550- 436 1.82 408 2.07 377 2.77 365 2.88 349 2.89 348 3.19
  88  0.584  0.311  0.546- 419 1.91 435 2.09 391 2.75 360 2.75 347 2.76 350 2.93
  89  0.753  0.437  0.548- 448 1.92 450 2.05 357 2.77 350 2.79 363 2.82 324 3.01
  90  0.086  0.689  0.545- 444 1.86 462 2.24 365 2.65 390 2.71 346 2.80 336 3.43
  91  0.083  0.439  0.545- 451 1.85 429 2.21 358 2.66 326 2.67 344 3.08 341 3.39
  92  0.084  0.189  0.546- 445 1.85 442 2.18 379 2.64 389 2.67 371 3.32 345 3.37
  93  0.500  0.126  0.500- 401 1.98 454 1.99 391 2.73 322 2.78 378 2.83 339 3.18
  94  0.999  0.498  0.594- 407 1.95 429 1.96 358 2.62 341 2.89 336 2.93
  95  0.581  0.186  0.550- 401 1.95 435 1.97 391 2.74 360 2.83 339 2.93 331 3.05
  96  0.000  0.754  0.593- 464 1.96 462 1.96 390 2.58 334 2.86 336 3.05
  97  0.334  1.000  0.592- 431 2.00 434 2.03 361 2.59 349 2.72 328 2.74
  98  1.000  0.998  0.593- 439 1.99 463 2.00 388 2.59 371 2.90 334 2.93
  99  0.000  0.248  0.592- 460 1.96 442 1.99 389 2.59 371 2.90 341 2.98
 100  0.333  0.496  0.591- 461 1.85 430 2.15 374 2.71 370 2.74 338 2.88
 101  0.335  0.740  0.590- 456 1.97 436 2.02 338 2.59 377 2.67 349 3.12
 102  0.665  0.246  0.591- 435 1.91 433 2.09 360 2.63 331 2.83 350 2.83
 103  0.666  1.000  0.592- 440 2.01 441 2.02 366 2.59 343 2.72 331 2.77
 104  0.665  0.742  0.591- 443 1.92 394 2.09 342 2.58 368 2.66 343 3.12
 105  0.667  0.495  0.591- 438 1.81 450 2.13 363 2.71 350 2.74 342 2.93
 106  0.167  0.999  0.592- 434 1.98 463 2.02 376 2.57 348 2.89 345 2.91
 107  0.168  0.249  0.593- 432 1.94 442 2.04 379 2.61 344 2.75 345 2.95
 108  0.171  0.750  0.595- 436 1.88 462 2.13 365 2.75 346 2.77 348 2.84
 109  0.248  0.436  0.550- 430 1.94 446 1.98 370 2.66 374 2.83 326 2.84 344 3.02
 110  0.165  0.504  0.587- 430 1.84 429 2.04 326 2.56 346 2.79 344 3.02
 111  0.335  0.254  0.592- 437 1.90 432 2.06 370 2.67 362 2.68 328 3.05
 112  0.500  0.000  0.591- 431 2.00 440 2.00 378 2.57 339 2.75 356 2.81
 113  0.833  0.874  0.499- 427 1.94 458 2.02 323 2.74 386 2.76 382 2.82
 114  0.747  0.934  0.640- 441 1.80 325 2.48 343 2.51
 115  0.832  0.998  0.592- 441 1.99 439 2.03 382 2.59 340 2.83 325 2.83
 116  0.750  0.187  0.547- 447 1.88 433 2.06 360 2.71 372 2.75 331 3.09 340 3.13
 117  0.423  0.687  0.547- 455 1.94 456 2.01 367 2.69 353 2.76 377 2.88 338 2.90
 118  0.423  0.443  0.546- 461 1.88 425 2.06 359 2.62 374 2.85 347 2.90 370 3.10
 119  0.083  0.312  0.361- 393 1.97 369 2.79 354 2.79
 120  0.412  0.813  0.639- 456 1.93  38 2.08 349 2.59 356 2.69
 121  0.915  0.062  0.640- 439 1.80 371 2.50 340 2.51
 122  0.914  0.562  0.641- 407 1.79 336 2.49 329 2.53
 123  0.417  0.935  0.640- 431 1.79 356 2.52 349 2.58
 124  0.741  0.811  0.640- 394 1.98  23 2.04 343 2.59 325 2.68
 125  0.751  0.306  0.644- 433 1.90  49 2.19 324 2.75 350 2.77
 126  0.749  0.062  0.640- 441 1.79 340 2.53 331 2.53
 127  0.083  0.312  0.640- 442 1.80 341 2.48 344 2.51
 128  0.666  0.874  0.499- 403 1.96 427 2.00 368 2.74 351 2.75 366 2.83 343 3.24
 129  0.086  0.563  0.640- 429 1.80 336 2.50 346 2.54
 130  0.087  0.436  0.640- 429 1.79 344 2.51 341 2.54
 131  0.084  0.185  0.641- 442 1.79 345 2.50 371 2.51
 132  0.417  0.187  0.640- 437 2.00  40 2.01 339 2.65 328 2.66
 133  0.416  0.418  0.630-   8 2.03 461 2.09 347 2.54 370 2.60
 134  0.085  0.936  0.641- 463 1.80 348 2.48 334 2.48
 135  0.083  0.687  0.639- 462 1.79 336 2.48 346 2.51
 136  0.084  0.061  0.642- 463 1.80 345 2.50 371 2.51
 137  0.833  0.503  0.590- 450 1.83 407 2.06 357 2.60 329 2.79 324 2.98
 138  0.912  0.435  0.640- 407 1.79 324 2.51 341 2.53
 139  0.831  0.751  0.592- 394 1.85 464 2.10 323 2.70 329 2.82 325 2.89
 140  0.832  0.249  0.590- 433 1.88 460 2.08 372 2.60 324 2.76 340 2.92
 141  0.747  0.186  0.640- 433 1.91  49 2.07 331 2.56 340 2.62
 142  0.917  0.812  0.361- 400 1.97 375 2.79 386 2.79
 143  0.581  0.936  0.639- 440 1.79 356 2.49 343 2.52
 144  0.085  0.812  0.643- 462 1.79 348 2.48 334 2.51
 145  0.577  0.191  0.644- 435 1.90  27 2.11 339 2.67 331 2.82
 146  0.254  0.679  0.662-  28 2.06  15 2.11 338 3.03 346 3.11
 147  0.239  0.444  0.643- 430 1.88  31 2.12 344 2.64 370 3.01
 148  0.916  0.937  0.642- 439 1.79 325 2.48 334 2.49
 149  0.916  0.687  0.639- 464 1.80 336 2.48 329 2.49
 150  0.252  0.930  0.637- 434 1.81 348 2.46 349 2.50
 151  0.254  0.187  0.641- 432 1.74 328 2.53 345 2.55
 152  0.398  0.550  0.652-   9 2.11  42 2.11 461 2.15 338 2.82 353 3.47
 153  0.417  0.191  0.547- 437 1.85 454 2.04 391 2.73 362 2.77 339 3.04 328 3.22
 154  0.753  0.569  0.636- 450 1.91  46 2.09 329 2.61 342 2.73
 155  0.500  0.874  0.501- 409 1.98 403 1.99 367 2.70 378 2.81 327 2.82 356 3.27
 156  0.915  0.311  0.640- 460 1.80 341 2.51 324 2.52
 157  0.914  0.813  0.643- 464 1.79 325 2.49 334 2.51
 158  0.583  0.066  0.639- 440 1.79 331 2.50 339 2.52
 159  0.249  0.313  0.546- 446 1.85 432 2.30 370 2.66 379 2.72 362 2.73 344 3.04
 160  0.591  0.566  0.639- 438 1.98  50 2.07 342 2.63 353 2.78
 161  0.248  0.574  0.629- 430 2.00  15 2.04 346 2.53 338 2.55
 162  0.754  0.694  0.655-  23 2.06  46 2.13 394 2.32 329 2.96 342 3.16
 163  0.263  0.801  0.646- 436 1.96  28 2.06 349 2.75 348 2.92
 164  0.251  0.060  0.642- 434 1.79 328 2.50 345 2.50
 165  0.917  0.563  0.361- 406 1.97 380 2.79 364 2.79
 166  0.500  0.373  0.501- 425 1.97 419 2.00 391 2.79 352 2.81 359 2.83 347 2.85
 167  0.500  0.621  0.500- 455 1.97 426 1.98 359 2.71 330 2.79 353 2.83 367 2.94
 168  0.832  0.623  0.500- 402 1.90 459 2.04 357 2.76 364 2.79 323 2.87 329 3.11
 169  0.252  0.188  0.547- 453 1.87 432 2.13 362 2.65 379 2.73 328 3.10 345 3.33
 170  0.833  0.373  0.499- 448 1.90 399 2.03 333 2.77 372 2.78 357 2.83 324 3.19
 171  0.833  0.124  0.499- 447 1.96 404 2.01 332 2.76 372 2.77 382 2.78 340 3.40
 172  0.167  0.376  0.498- 446 1.90 451 2.02 369 2.73 326 2.77 379 2.86 344 3.30
 173  0.167  0.624  0.500- 452 1.90 444 2.05 326 2.78 337 2.79 365 2.84 346 3.05
 174  0.581  0.439  0.645- 438 2.08  34 2.11  16 2.27 347 2.80 350 3.01
 175  0.577  0.686  0.640- 443 1.87  18 2.11 353 2.60 342 2.88
 176  0.914  0.185  0.640- 460 1.79 340 2.52 371 2.53
 177  0.250  0.317  0.641- 432 1.94   6 2.07 344 2.58 370 2.63
 178  0.168  0.873  0.500- 408 1.93 457 2.02 365 2.73 321 2.78 376 2.86 348 3.53
 179  0.916  0.437  0.454- 406 1.98 399 2.11 333 2.77 357 2.78 354 2.80 358 2.90
 180  0.167  0.124  0.499- 453 1.95 445 2.01 376 2.76 355 2.77 379 2.78
 181  0.750  0.062  0.546- 447 1.85 441 2.24 366 2.68 382 2.70 331 3.04 340 3.10
 182  0.421  0.303  0.656-  40 2.13   8 2.13 437 2.29 347 3.06 370 3.32
 183  0.590  0.810  0.646- 443 1.95  44 2.09 343 2.63 356 2.80
 184  0.420  0.676  0.634- 456 2.04  13 2.04 353 2.57 338 2.62
 185  0.753  0.434  0.637- 450 1.99  48 2.00 324 2.61 350 2.63
 186  0.499  0.254  0.592- 437 2.00 435 2.04 347 2.61 391 2.69 339 2.99
 187  0.589  0.320  0.634- 435 1.98  26 2.04 350 2.57 347 2.60
 188  0.916  0.187  0.453- 412 1.98 404 2.11 332 2.76 335 2.78 372 2.81 389 2.92
 189  0.665  0.626  0.503- 426 1.93 402 2.06 342 2.70 368 2.80 363 2.83 387 2.88
 190  0.585  0.562  0.455- 426 1.99 414 2.00 359 2.78 387 2.79 363 2.80 330 2.83
 191  0.583  0.064  0.454- 417 2.00 401 2.01 322 2.79 381 2.79 366 2.87 378 2.88
 192  0.917  0.687  0.361- 400 1.97 380 2.79 364 2.79
 193  0.917  0.437  0.361- 406 1.97 354 2.79 333 2.79
 194  0.917  0.188  0.361- 412 1.97 335 2.79 332 2.79
 195  0.583  0.938  0.361- 417 1.97 327 2.79 351 2.79
 196  0.583  0.687  0.361- 413 1.97 330 2.79 387 2.79
 197  0.583  0.437  0.361- 414 1.97 352 2.79 373 2.79
 198  0.583  0.188  0.361- 415 1.97 322 2.79 381 2.79
 199  0.250  0.938  0.361- 420 1.97 321 2.79 384 2.79
 200  0.917  0.938  0.361- 410 1.97 375 2.79 386 2.79
 201  0.250  0.687  0.361- 424 1.97 337 2.79 385 2.79
 202  0.250  0.188  0.361- 395 1.97 355 2.79 392 2.79
 203  0.750  0.938  0.361- 422 1.97 351 2.79 386 2.79
 204  0.750  0.687  0.361- 421 1.97 387 2.79 364 2.79
 205  0.750  0.437  0.361- 411 1.97 373 2.79 333 2.79
 206  0.750  0.188  0.361- 449 1.97 381 2.79 332 2.79
 207  0.417  0.938  0.361- 428 1.97 384 2.79 327 2.79
 208  0.417  0.687  0.361- 423 1.97 385 2.79 330 2.79
 209  0.417  0.437  0.361- 405 1.97 383 2.79 352 2.79
 210  0.250  0.437  0.361- 418 1.97 369 2.79 383 2.79
 211  0.083  0.063  0.361- 398 1.97 355 2.79 335 2.79
 212  0.915  0.687  0.453- 400 1.98 459 2.10 364 2.76 323 2.79 380 2.80 390 2.94
 213  0.666  0.379  0.503- 419 1.93 448 2.06 363 2.70 350 2.82 373 2.88 360 2.92
 214  0.334  0.378  0.503- 425 1.95 446 2.08 370 2.69 374 2.70 383 2.89 362 2.91
 215  0.335  0.626  0.503- 455 1.93 452 2.08 338 2.74 377 2.80 374 2.83 385 2.89
 216  0.916  0.062  0.547- 404 1.85 439 2.22 382 2.68 388 2.71 340 3.09 371 3.25
 217  0.750  0.938  0.455- 427 1.95 422 2.00 351 2.80 386 2.82 366 2.86 382 2.88
 218  0.250  0.936  0.454- 408 1.94 420 2.00 384 2.78 321 2.78 361 2.89 376 2.92
 219  0.250  0.189  0.454- 395 1.97 453 2.12 362 2.73 355 2.82 392 2.82 379 2.85
 220  0.749  0.689  0.457- 402 1.98 421 2.03 368 2.78 323 2.84 387 2.84 364 2.88
 221  0.251  0.062  0.454- 420 1.98 453 2.10 392 2.79 355 2.81 361 2.84 376 2.89
 222  0.417  0.936  0.454- 409 2.00 428 2.00 327 2.78 384 2.79 378 2.86 361 2.90
 223  0.416  0.937  0.546- 409 1.85 431 2.25 361 2.71 378 2.72 349 2.87 356 3.07
 224  0.417  0.685  0.455- 455 1.91 423 2.04 330 2.78 385 2.80 377 2.83 367 2.89
 225  0.417  0.436  0.454- 425 1.96 405 2.02 352 2.77 383 2.79 359 2.82 374 2.85
 226  0.084  0.687  0.453- 396 1.97 444 2.08 337 2.76 380 2.80 365 2.82 390 2.93
 227  0.084  0.937  0.454- 398 1.99 457 2.11 321 2.77 375 2.80 376 2.89 388 2.90
 228  0.083  0.437  0.453- 397 1.97 451 2.12 354 2.76 369 2.78 326 2.80 358 2.91
 229  0.084  0.187  0.453- 393 1.98 445 2.12 355 2.76 335 2.78 379 2.87 389 2.90
 230  0.917  0.812  0.454- 400 1.98 458 2.11 323 2.75 386 2.80 375 2.80 390 2.87
 231  0.747  0.559  0.545- 402 1.94 450 1.98 363 2.62 357 2.79 342 2.83 329 3.21
 232  0.916  0.562  0.454- 406 1.98 459 2.10 357 2.78 364 2.79 380 2.81 358 2.88
 233  0.916  0.062  0.454- 410 1.98 404 2.09 332 2.79 335 2.80 382 2.86 388 2.89
 234  0.916  0.312  0.454- 412 1.97 399 2.09 333 2.79 354 2.81 372 2.83 389 2.89
 235  0.417  0.187  0.454- 416 1.98 454 2.07 322 2.79 392 2.80 391 2.82 362 2.87
 236  0.582  0.439  0.456- 414 2.01 419 2.02 359 2.71 363 2.80 352 2.82 373 2.86
 237  0.252  0.688  0.456- 452 1.99 424 2.03 377 2.76 385 2.80 337 2.86 365 2.89
 238  0.583  0.190  0.455- 415 1.98 401 2.09 391 2.73 360 2.79 322 2.84 381 2.84
 239  0.000  0.125  0.499- 404 1.97 445 1.97 335 2.74 389 2.79 388 2.81
 240  0.583  0.810  0.455- 413 1.98 403 2.10 368 2.73 367 2.75 327 2.84 351 2.85
 241  1.000  0.374  0.498- 399 1.95 451 1.95 354 2.73 389 2.78 358 2.82
 242  1.000  0.627  0.498- 444 1.94 459 1.94 380 2.72 390 2.78 358 2.85
 243  0.334  0.126  0.499- 454 1.95 453 2.02 362 2.73 392 2.75 361 2.79 328 3.39
 244  0.000  0.875  0.499- 457 1.97 458 1.97 375 2.77 390 2.78 388 2.79
 245  0.333  0.874  0.499- 409 1.97 408 2.00 377 2.74 384 2.75 361 2.84 349 3.12
 246  0.666  0.126  0.500- 401 1.97 447 2.01 360 2.73 381 2.78 366 2.79 331 3.28
 247  0.251  0.440  0.455- 418 1.98 446 2.07 374 2.69 383 2.82 326 2.84 369 2.86
 248  0.083  0.563  0.361- 397 1.97 380 2.79 337 2.79
 249  0.917  0.063  0.361- 410 1.97 335 2.79 332 2.79
 250  0.749  0.813  0.453- 421 1.97 427 2.08 351 2.76 386 2.79 368 2.83 323 2.89
 251  0.749  0.438  0.455- 411 2.00 448 2.03 363 2.72 373 2.81 333 2.83 357 2.85
 252  0.916  0.937  0.454- 410 1.98 458 2.11 386 2.78 375 2.79 382 2.88 388 2.90
 253  0.916  0.312  0.547- 399 1.84 460 2.22 372 2.72 389 2.73 324 2.90 341 3.34
 254  0.081  0.564  0.546- 444 1.84 429 2.23 358 2.68 326 2.77 346 2.86 336 3.28
 255  0.583  0.063  0.361- 417 1.97 322 2.79 381 2.79
 256  0.584  0.315  0.454- 419 1.95 415 2.02 373 2.77 352 2.79 391 2.85 360 2.89
 257  0.748  0.808  0.545- 394 1.84 427 2.02 368 2.66 323 2.76 343 3.14 325 3.35
 258  0.500  0.500  0.407- 414 1.97 405 1.97 330 2.79 352 2.79 359 2.80
 259  0.083  0.188  0.361- 393 1.97 355 2.79 335 2.79
 260  0.000  0.000  0.407- 410 1.97 398 1.97 335 2.79 375 2.79 388 2.98
 261  0.000  0.250  0.407- 412 1.97 393 1.97 354 2.79 335 2.79 389 2.97
 262  0.000  0.500  0.407- 406 1.97 397 1.97 354 2.79 380 2.79 358 2.99
 263  0.748  0.564  0.454- 402 1.98 411 2.01 387 2.74 363 2.76 364 2.81 357 2.93
 264  0.333  0.000  0.407- 428 1.97 420 1.97 392 2.79 384 2.79 361 2.96
 265  0.333  0.500  0.407- 405 1.97 418 1.97 383 2.79 385 2.79 374 2.82
 266  0.333  0.750  0.407- 423 1.97 424 1.97 384 2.79 385 2.79 377 2.84
 267  0.667  0.000  0.407- 422 1.97 417 1.97 381 2.79 351 2.79 366 2.95
 268  0.667  0.250  0.407- 449 1.97 415 1.97 373 2.79 381 2.79 360 2.89
 269  0.667  0.500  0.407- 411 1.97 414 1.97 373 2.79 387 2.79 363 2.81
 270  0.833  0.250  0.407- 449 1.97 412 1.97 333 2.79 332 2.79 372 2.90
 271  0.167  0.000  0.407- 420 1.97 398 1.97 355 2.79 321 2.79 376 2.98
 272  0.167  0.500  0.407- 418 1.97 397 1.97 337 2.79 369 2.79 326 2.85
 273  0.167  0.750  0.407- 424 1.97 396 1.97 321 2.79 337 2.79 365 2.89
 274  0.500  0.000  0.407- 417 1.97 428 1.97 322 2.79 327 2.79 378 2.95
 275  0.500  0.250  0.407- 415 1.97 416 1.97 352 2.79 322 2.79 391 2.86
 276  0.500  0.750  0.407- 413 1.97 423 1.97 327 2.79 330 2.79 367 2.91
 277  0.917  0.312  0.361- 412 1.97 354 2.79 333 2.79
 278  0.333  0.250  0.407- 416 1.97 395 1.97 383 2.79 392 2.79 362 2.87
 279  0.747  0.313  0.455- 448 2.01 449 2.02 373 2.77 360 2.78 333 2.86 372 2.90
 280  0.000  0.750  0.407- 400 1.97 396 1.97 375 2.79 380 2.79 390 2.99
 281  0.417  0.810  0.455- 423 1.97 409 2.09 377 2.75 367 2.79 327 2.83 384 2.84
 282  0.749  0.062  0.454- 422 1.98 447 2.06 381 2.78 332 2.81 366 2.85 382 2.90
 283  0.833  0.000  0.407- 422 1.97 410 1.97 332 2.79 386 2.79 382 2.97
 284  0.583  0.686  0.455- 426 1.91 413 2.02 330 2.78 387 2.80 368 2.83 367 2.85
 285  0.252  0.565  0.454- 452 1.99 418 2.01 385 2.74 374 2.77 337 2.80 326 2.93
 286  0.167  0.250  0.407- 395 1.97 393 1.97 369 2.79 355 2.79 379 2.98
 287  0.250  0.811  0.455- 424 1.98 408 2.07 377 2.76 365 2.82 384 2.83 321 2.84
 288  0.667  0.750  0.407- 421 1.97 413 1.97 351 2.79 387 2.79 368 2.86
 289  0.583  0.812  0.361- 413 1.97 327 2.79 351 2.79
 290  0.250  0.563  0.361- 418 1.97 337 2.79 385 2.79
 291  0.583  0.563  0.361- 414 1.97 330 2.79 387 2.79
 292  0.250  0.812  0.361- 424 1.97 321 2.79 384 2.79
 293  0.250  0.312  0.361- 395 1.97 369 2.79 383 2.79
 294  0.250  0.063  0.361- 420 1.97 355 2.79 392 2.79
 295  0.750  0.563  0.361- 411 1.97 387 2.79 364 2.79
 296  0.750  0.312  0.361- 449 1.97 373 2.79 333 2.79
 297  0.750  0.063  0.361- 422 1.97 381 2.79 332 2.79
 298  0.417  0.812  0.361- 423 1.97 384 2.79 327 2.79
 299  0.417  0.312  0.361- 416 1.97 383 2.79 352 2.79
 300  0.750  0.812  0.361- 421 1.97 351 2.79 386 2.79
 301  0.083  0.312  0.454- 393 1.98 451 2.09 369 2.80 354 2.80 389 2.87 379 2.88
 302  0.417  0.063  0.361- 428 1.97 392 2.79 322 2.79
 303  0.417  0.062  0.455- 454 1.95 428 2.00 322 2.81 392 2.83 361 2.84 378 2.85
 304  0.084  0.812  0.454- 396 1.98 457 2.11 365 2.77 321 2.80 375 2.81 390 2.87
 305  0.417  0.563  0.361- 405 1.97 385 2.79 330 2.79
 306  0.414  0.811  0.547- 409 1.95 456 1.97 377 2.70 367 2.77 349 2.92 356 3.13
 307  0.583  0.312  0.361- 415 1.97 352 2.79 373 2.79
 308  0.084  0.562  0.454- 397 1.98 444 2.09 326 2.76 337 2.79 380 2.81 358 2.91
 309  0.251  0.062  0.547- 453 1.84 434 2.24 361 2.68 376 2.73 328 3.00 345 3.29
 310  0.833  0.500  0.407- 411 1.97 406 1.97 333 2.79 364 2.79 357 2.88
 311  0.417  0.188  0.361- 416 1.97 392 2.79 322 2.79
 312  0.083  0.938  0.361- 398 1.97 375 2.79 321 2.79
 313  0.083  0.812  0.361- 396 1.97 375 2.79 321 2.79
 314  0.083  0.437  0.361- 397 1.97 369 2.79 354 2.79
 315  0.833  0.750  0.407- 421 1.97 400 1.97 386 2.79 364 2.79 323 2.87
 316  0.416  0.311  0.457- 425 1.91 416 2.04 362 2.82 391 2.82 383 2.84 352 2.88
 317  0.084  0.062  0.454- 398 1.98 445 2.11 355 2.80 335 2.81 376 2.85 388 2.88
 318  0.416  0.560  0.458- 455 1.97 405 2.02 359 2.74 374 2.74 385 2.88 330 2.90
 319  0.083  0.687  0.361- 396 1.97 380 2.79 337 2.79
 320  0.252  0.314  0.454- 446 1.97 395 2.01 383 2.74 362 2.78 369 2.81 379 2.97
 321  0.167  0.875  0.407- 227 2.77 218 2.78 178 2.78 292 2.79 313 2.79 199 2.79 312 2.79 273 2.79
                           271 2.79 304 2.80 287 2.84 424 3.42 396 3.42 420 3.42 398 3.42 408 3.47
 322  0.500  0.125  0.407-  93 2.78 235 2.79 191 2.79 255 2.79 198 2.79 302 2.79 311 2.79 274 2.79
                           275 2.79 303 2.81 238 2.84 417 3.42 415 3.42 428 3.42 416 3.42 454 3.49
 323  0.836  0.751  0.503-  70 2.66  79 2.68 139 2.70 113 2.74 230 2.75 257 2.76 212 2.79 220 2.84
                           315 2.87 168 2.87 250 2.89  83 2.96 394 3.30 458 3.36 459 3.42 400 3.44
 324  0.837  0.371  0.606- 138 2.51 156 2.52 185 2.61 125 2.75 140 2.76 253 2.90 137 2.98  73 2.99
                            60 3.01  89 3.01 170 3.19 460 3.37 433 3.37 407 3.45 450 3.51 399 3.56
 325  0.833  0.876  0.619- 148 2.48 114 2.48 157 2.49 124 2.68 115 2.83 139 2.89  82 3.22  79 3.24
                            84 3.26 257 3.35 441 3.40 439 3.41 394 3.45 464 3.46 458 3.92 334 3.96
 326  0.164  0.500  0.502- 110 2.56  91 2.67 308 2.76 172 2.77 254 2.77 173 2.78  62 2.79 228 2.80
                           109 2.84 247 2.84 272 2.85 285 2.93 430 3.34 451 3.40 452 3.42 397 3.43
 327  0.500  0.875  0.407- 222 2.78  86 2.79 289 2.79 298 2.79 195 2.79 207 2.79 276 2.79 274 2.79
                           155 2.82 281 2.83 240 2.84 413 3.42 423 3.42 417 3.42 428 3.42 409 3.52
 328  0.331  0.120  0.612- 164 2.50  85 2.52 151 2.53 132 2.66  97 2.74 309 3.00 111 3.05  65 3.05
                           169 3.10 153 3.22 434 3.35 431 3.36 243 3.39 432 3.43 437 3.54 453 3.71
 329  0.840  0.626  0.604- 149 2.49 122 2.53 154 2.61 137 2.79 139 2.82  70 2.84  83 2.86  77 2.87
                           162 2.96 168 3.11 231 3.21 464 3.37 407 3.39 450 3.40 459 3.47 394 3.51
 330  0.500  0.625  0.407- 224 2.78 284 2.78 167 2.79 291 2.79 196 2.79 305 2.79 208 2.79 258 2.79
                           276 2.79 190 2.83 318 2.90 414 3.42 413 3.42 405 3.42 423 3.42 455 3.44
 331  0.667  0.122  0.609- 158 2.50 126 2.53 141 2.56 103 2.77 145 2.82 102 2.83 181 3.04  58 3.05
                            95 3.05 116 3.09 246 3.28 440 3.36 441 3.39 435 3.42 433 3.52 447 3.70
 332  0.833  0.125  0.407- 171 2.76 188 2.76  57 2.79 297 2.79 206 2.79 249 2.79 194 2.79 283 2.79
                           270 2.79 233 2.79 282 2.81 422 3.42 449 3.42 410 3.42 412 3.42 447 3.54
 333  0.833  0.375  0.407- 179 2.77 170 2.77 205 2.79 296 2.79 193 2.79 277 2.79 270 2.79 310 2.79
                           234 2.79 251 2.83 279 2.86 411 3.42 449 3.42 412 3.42 406 3.42 448 3.48
 334  1.000  0.874  0.625- 134 2.48 148 2.49 144 2.51 157 2.51  96 2.86  98 2.93  79 3.37  66 3.37
                           464 3.40  84 3.40  80 3.41 462 3.41 439 3.46 463 3.47 348 3.95 325 3.96
 335  0.000  0.125  0.407- 239 2.74 229 2.78 188 2.78 249 2.79 194 2.79 211 2.79 259 2.79 260 2.79
                           261 2.79 233 2.80 317 2.81 410 3.42 412 3.42 398 3.42 393 3.42 404 3.55
 336  1.000  0.623  0.623- 135 2.48 149 2.48 122 2.49 129 2.50  94 2.93  96 3.05 254 3.28  77 3.28
                            70 3.41  90 3.43 407 3.43 429 3.43 464 3.51 462 3.51 329 3.83 346 3.84
 337  0.167  0.625  0.407- 226 2.76 308 2.79 290 2.79 201 2.79 248 2.79 319 2.79 272 2.79 273 2.79
                           173 2.79 285 2.80 237 2.86 418 3.42 424 3.42 397 3.42 396 3.42 452 3.46
 338  0.334  0.624  0.595- 161 2.55 101 2.59 184 2.62  78 2.70  81 2.74 215 2.74 152 2.82  62 2.86
                           100 2.88 117 2.90 146 3.03 461 3.38 455 3.43 452 3.43 456 3.43 436 3.49
 339  0.500  0.122  0.605- 158 2.52  85 2.54 132 2.65 145 2.67 112 2.75  95 2.93  65 2.93  58 2.96
                           186 2.99 153 3.04  93 3.18 440 3.33 431 3.35 435 3.45 437 3.50 401 3.62
 340  0.833  0.122  0.612- 121 2.51 176 2.52 126 2.53 141 2.62 115 2.83 140 2.92 216 3.09 181 3.10
                           116 3.13  72 3.18 441 3.39 171 3.40 439 3.41 433 3.44 460 3.48 447 3.75
 341  1.000  0.375  0.623- 127 2.48 156 2.51 138 2.53 130 2.54  94 2.89  99 2.98 253 3.34  67 3.34
                            73 3.37  91 3.39 407 3.43 429 3.44 460 3.48 442 3.50 324 3.90 344 3.91
 342  0.666  0.626  0.593- 104 2.58 160 2.63  83 2.64 189 2.70 154 2.73  74 2.81 231 2.83  61 2.83
                           175 2.88 105 2.93 162 3.16 438 3.32 443 3.37 426 3.39  46 3.39 402 3.40
 343  0.664  0.880  0.607- 114 2.51 143 2.52 124 2.59 183 2.63 103 2.72  59 2.91  71 2.93  82 2.94
                           104 3.12 257 3.14 128 3.24 440 3.32 441 3.33 443 3.47 394 3.57 403 3.58
 344  0.164  0.371  0.608- 130 2.51 127 2.51 177 2.58 147 2.64 107 2.75  67 2.91 109 3.02 110 3.02
                           159 3.04  91 3.08 172 3.30 442 3.35 430 3.41 432 3.45 429 3.46 451 3.62
 345  0.168  0.123  0.622- 136 2.50 131 2.50 164 2.50 151 2.55 106 2.91 107 2.95 309 3.29  69 3.29
                           169 3.33  92 3.37 432 3.40 434 3.44 463 3.46 442 3.48 328 3.89 453 3.96
 346  0.160  0.627  0.601- 135 2.51 161 2.53 129 2.54 108 2.77 110 2.79  90 2.80 254 2.86  81 2.88
                           173 3.05 146 3.11  62 3.18 462 3.34 429 3.40 444 3.43 430 3.49 436 3.55
 347  0.504  0.371  0.596- 133 2.54 187 2.60 186 2.61  64 2.62  63 2.71  88 2.76 174 2.80 166 2.85
                           118 2.90  76 3.01 182 3.06 435 3.37 419 3.39 437 3.45 425 3.51  34 3.53
 348  0.166  0.874  0.618- 150 2.46 134 2.48 144 2.48 108 2.84 106 2.89 163 2.92  66 3.16  87 3.19
                            80 3.24  75 3.28 462 3.40 434 3.42 463 3.43 436 3.44 178 3.53 457 3.87
 349  0.335  0.879  0.603- 150 2.50 123 2.58 120 2.59  97 2.72 163 2.75 223 2.87  87 2.89 306 2.92
                            75 2.92 101 3.12 245 3.12 434 3.33 431 3.33 436 3.46 456 3.48 409 3.54
 350  0.673  0.373  0.597- 187 2.57  60 2.63 185 2.63 105 2.74 125 2.77  89 2.79 213 2.82 102 2.83
                            88 2.93  64 3.00 174 3.01 433 3.35 448 3.37 438 3.46 435 3.49 419 3.52
 351  0.667  0.875  0.407- 128 2.75 250 2.76 300 2.79 203 2.79 289 2.79 195 2.79 288 2.79 267 2.79
                           217 2.80  86 2.81 240 2.85 421 3.42 413 3.42 422 3.42 417 3.42 427 3.49
 352  0.500  0.375  0.407- 225 2.77 197 2.79 307 2.79 209 2.79 299 2.79 258 2.79 275 2.79 256 2.79
                           166 2.81 236 2.82 316 2.88 414 3.42 415 3.42 405 3.42 416 3.42 425 3.44
 353  0.503  0.625  0.594- 184 2.57 175 2.60  74 2.65  78 2.67  61 2.70  76 2.71 117 2.76 160 2.78
                           167 2.83  68 2.94 426 3.38 443 3.39 438 3.45 455 3.47 152 3.47 456 3.47
 354  0.000  0.375  0.407- 241 2.73 228 2.76 193 2.79 277 2.79 314 2.79 119 2.79 261 2.79 262 2.79
                           179 2.80 301 2.80 234 2.81 406 3.42 412 3.42 393 3.42 397 3.42 451 3.54
 355  0.167  0.125  0.407- 229 2.76 180 2.77 294 2.79 202 2.79 211 2.79 259 2.79 271 2.79 286 2.79
                           317 2.80 221 2.81 219 2.82 420 3.42 395 3.42 398 3.42 393 3.42 453 3.57
 356  0.500  0.877  0.610- 143 2.49 123 2.52 120 2.69  68 2.73 183 2.80 112 2.81  59 3.01  71 3.07
                           223 3.07 306 3.13 155 3.27 440 3.39 431 3.39 456 3.46 443 3.49 403 3.69
 357  0.836  0.500  0.503- 137 2.60  73 2.67  77 2.75 168 2.76  89 2.77 179 2.78 232 2.78 231 2.79
                           170 2.83 251 2.85 310 2.88 263 2.93 450 3.35 448 3.41 399 3.41 402 3.41
 358  0.999  0.500  0.507-  94 2.62  91 2.66 254 2.68  77 2.69  73 2.69 241 2.82 242 2.85 232 2.88
                           179 2.90 308 2.91 228 2.91 262 2.99 459 3.39 399 3.40 451 3.41 444 3.41
 359  0.501  0.500  0.500- 118 2.62 236 2.71 167 2.71 318 2.74  61 2.74  64 2.75 190 2.78 258 2.80
                           225 2.82 166 2.83  78 2.92  76 3.25 414 3.41 419 3.44 405 3.45 425 3.45
 360  0.668  0.248  0.503- 102 2.63 116 2.71 246 2.73  60 2.74  88 2.75 279 2.78 238 2.79  57 2.80
                            95 2.83 256 2.89 268 2.89 213 2.92 447 3.40 435 3.42 401 3.43 419 3.43
 361  0.333  0.001  0.506-  97 2.59 309 2.68  75 2.68 223 2.71  65 2.74 243 2.79 221 2.84 245 2.84
                           303 2.84 218 2.89 222 2.90 264 2.96 454 3.34 408 3.38 453 3.40 409 3.41
 362  0.330  0.248  0.503- 169 2.65 111 2.68 159 2.73 243 2.73 219 2.73 153 2.77 320 2.78 316 2.82
                           235 2.87 278 2.87 214 2.91  63 2.98 437 3.33 453 3.36 446 3.42 395 3.44
 363  0.669  0.499  0.501- 231 2.62 213 2.70 105 2.71 251 2.72 263 2.76 190 2.80 236 2.80 269 2.81
                            89 2.82 189 2.83  61 2.87  64 3.01 438 3.35 411 3.41 448 3.42 402 3.42
 364  0.833  0.625  0.407- 212 2.76 295 2.79 204 2.79 165 2.79 192 2.79 310 2.79 315 2.79 232 2.79
                           168 2.79 263 2.81 220 2.88 411 3.42 421 3.42 406 3.42 400 3.42 402 3.45
 365  0.164  0.751  0.503-  90 2.65  66 2.67 178 2.73 108 2.75 304 2.77 226 2.82 287 2.82 173 2.84
                            87 2.88 237 2.89 273 2.89  81 2.89 436 3.34 457 3.37 444 3.43 452 3.45
 366  0.667  0.001  0.505- 103 2.59 181 2.68  71 2.69  58 2.70  82 2.74 246 2.79 128 2.83 282 2.85
                           217 2.86 191 2.87  86 2.88 267 2.95 401 3.37 427 3.38 447 3.39 403 3.40
 367  0.501  0.753  0.504-  68 2.66 117 2.69 155 2.70  74 2.71 240 2.75 306 2.77 281 2.79  59 2.80
                           284 2.85 224 2.89 276 2.91 167 2.94 456 3.37 403 3.37 409 3.41 426 3.42
 368  0.665  0.752  0.502- 257 2.66 104 2.66 240 2.73 128 2.74  59 2.78 220 2.78 189 2.80 250 2.83
                           284 2.83 288 2.86  74 2.86  83 2.99 394 3.36 403 3.38 426 3.39 413 3.46
 369  0.167  0.375  0.407- 172 2.73 228 2.78 210 2.79 314 2.79 293 2.79 119 2.79 272 2.79 286 2.79
                           301 2.80 320 2.81 247 2.86 395 3.42 418 3.42 397 3.42 393 3.42 446 3.44
 370  0.327  0.373  0.593- 133 2.60 177 2.63 109 2.66 159 2.66 111 2.67 214 2.69  63 2.72 100 2.74
                           147 3.01 118 3.10 446 3.29 182 3.32   8 3.39 432 3.39 461 3.42 430 3.43
 371  1.000  0.123  0.620- 121 2.50 131 2.51 136 2.51 176 2.53  99 2.90  98 2.90  69 3.21 216 3.25
                            72 3.31  92 3.32 460 3.43 442 3.44 463 3.45 439 3.45 445 3.92 404 3.93
 372  0.835  0.248  0.504- 140 2.60  72 2.67 253 2.72 116 2.75 171 2.77 170 2.78 188 2.81 234 2.83
                            57 2.85  60 2.87 270 2.90 279 2.90 404 3.39 433 3.41 447 3.42 448 3.43
 373  0.667  0.375  0.407- 256 2.77 279 2.77 205 2.79 296 2.79 197 2.79 307 2.79 269 2.79 268 2.79
                           251 2.81 236 2.86 213 2.88 411 3.42 449 3.42 415 3.42 414 3.42 419 3.47
 374  0.331  0.499  0.501-  62 2.63 247 2.69 214 2.70 100 2.71 318 2.74 285 2.77 265 2.82 215 2.83
                           109 2.83 118 2.85 225 2.85  78 3.03 461 3.35 418 3.41 452 3.42 425 3.45
 375  0.000  0.875  0.407- 244 2.77 252 2.79 142 2.79 313 2.79 200 2.79 312 2.79 280 2.79 260 2.79
                           227 2.80 230 2.80 304 2.81 400 3.42 396 3.42 410 3.42 398 3.42 458 3.57
 376  0.166  0.001  0.506- 106 2.57  80 2.67  69 2.71 309 2.73  75 2.74 180 2.76 317 2.85 178 2.86
                           221 2.89 227 2.89 218 2.92 271 2.98 408 3.37 453 3.39 445 3.39 457 3.44
 377  0.334  0.751  0.502- 101 2.67 306 2.70 245 2.74 281 2.75 287 2.76 237 2.76  87 2.77 215 2.80
                           224 2.83 266 2.84 117 2.88  81 2.93 436 3.36 455 3.41 409 3.42 456 3.42
 378  0.500  0.999  0.505- 112 2.57  71 2.70  58 2.70 223 2.72  65 2.76 155 2.81  93 2.83  86 2.84
                           303 2.85 222 2.86 191 2.88 274 2.95 409 3.38 454 3.39 403 3.39 401 3.40
 379  0.166  0.248  0.506- 107 2.61  92 2.64  67 2.71 159 2.72 169 2.73 180 2.78 219 2.85 172 2.86
                           229 2.87 301 2.88 320 2.97 286 2.98 446 3.37 453 3.39 445 3.39 451 3.45
 380  0.000  0.625  0.407- 242 2.72 165 2.79 192 2.79 248 2.79 319 2.79 262 2.79 280 2.79 226 2.80
                           212 2.80 308 2.81 232 2.81 406 3.42 400 3.42 397 3.42 396 3.42 444 3.52
 381  0.667  0.125  0.407- 282 2.78 246 2.78 191 2.79 297 2.79 206 2.79 255 2.79 198 2.79 267 2.79
                           268 2.79  57 2.79 238 2.84 422 3.42 449 3.42 417 3.42 415 3.42 401 3.53
 382  0.834  0.000  0.506- 115 2.59  84 2.67 216 2.68 181 2.70 171 2.78  82 2.79 113 2.82 233 2.86
                           217 2.88 252 2.88 282 2.90 283 2.97 427 3.36 447 3.39 404 3.41 458 3.42
 383  0.333  0.375  0.407- 320 2.74 225 2.79 209 2.79 299 2.79 210 2.79 293 2.79 278 2.79 265 2.79
                           247 2.82 316 2.84 214 2.89 405 3.42 416 3.42 395 3.42 418 3.42 425 3.44
 384  0.333  0.875  0.407- 245 2.75 218 2.78 298 2.79 292 2.79 207 2.79 199 2.79 266 2.79 264 2.79
                           222 2.79 287 2.83 281 2.84 423 3.42 424 3.42 428 3.42 420 3.42 408 3.49
 385  0.333  0.625  0.407- 285 2.74 305 2.79 208 2.79 290 2.79 201 2.79 265 2.79 266 2.79 237 2.80
                           224 2.80 318 2.88 215 2.89 405 3.42 423 3.42 418 3.42 424 3.42 455 3.44
 386  0.833  0.875  0.407- 113 2.76 252 2.78 250 2.79 300 2.79 203 2.79 142 2.79 200 2.79 315 2.79
                           283 2.79 230 2.80 217 2.82 421 3.42 400 3.42 422 3.42 410 3.42 427 3.47
 387  0.667  0.625  0.407- 263 2.74 295 2.79 204 2.79 291 2.79 196 2.79 269 2.79 288 2.79 190 2.79
                           284 2.80 220 2.84 189 2.88 411 3.42 421 3.42 414 3.42 413 3.42 426 3.43
 388  0.000  1.000  0.506-  98 2.59  80 2.69  84 2.70  69 2.70 216 2.71 244 2.79 239 2.81 317 2.88
                           233 2.89 227 2.90 252 2.90 260 2.98 404 3.40 458 3.40 457 3.41 445 3.41
 389  0.000  0.250  0.506-  99 2.59  92 2.67  72 2.69 253 2.73  67 2.74 241 2.78 239 2.79 301 2.87
                           234 2.89 229 2.90 188 2.92 261 2.97 451 3.39 399 3.39 445 3.40 404 3.41
 390  0.000  0.751  0.507-  96 2.58  79 2.71  90 2.71  70 2.72  66 2.73 244 2.78 242 2.78 304 2.87
                           230 2.87 226 2.93 212 2.94 280 2.99 444 3.39 457 3.39 458 3.39 459 3.41
 391  0.501  0.248  0.502- 186 2.69 153 2.73 238 2.73  93 2.73  95 2.74  88 2.75 166 2.79 235 2.82
                           316 2.82 256 2.85 275 2.86  63 2.97 437 3.36 401 3.39 419 3.41 415 3.45
 392  0.333  0.125  0.407- 243 2.75 302 2.79 311 2.79 294 2.79 202 2.79 264 2.79 278 2.79 221 2.79
                           235 2.80 219 2.82 303 2.83 428 3.42 416 3.42 420 3.42 395 3.42 454 3.47
 393  0.083  0.250  0.407- 119 1.97 259 1.97 261 1.97 286 1.97 301 1.98 229 1.98 354 3.42 369 3.42
                           355 3.42 335 3.42 389 3.56 379 3.57
 394  0.753  0.752  0.591- 257 1.84 139 1.85  83 1.95 124 1.98 104 2.09 162 2.32  23 3.11 323 3.30
                           368 3.36 325 3.45 342 3.48 329 3.51 343 3.57
 395  0.250  0.250  0.407- 219 1.97 293 1.97 202 1.97 286 1.97 278 1.97 320 2.01 369 3.42 355 3.42
                           383 3.42 392 3.42 362 3.44 379 3.58
 396  0.083  0.750  0.407- 313 1.97 319 1.97 273 1.97 280 1.97 226 1.97 304 1.98 321 3.42 375 3.42
                           337 3.42 380 3.42 365 3.47 390 3.58
 397  0.083  0.500  0.407- 228 1.97 248 1.97 314 1.97 272 1.97 262 1.97 308 1.98 337 3.42 354 3.42
                           369 3.42 380 3.42 326 3.43 358 3.59
 398  0.083  0.000  0.407- 312 1.97 211 1.97 271 1.97 260 1.97 317 1.98 227 1.99 335 3.42 355 3.42
                           321 3.42 375 3.42 376 3.57 388 3.57
 399  0.918  0.374  0.506- 253 1.84  73 1.85 241 1.95 170 2.03 234 2.09 179 2.11 389 3.39 358 3.40
                           357 3.41 372 3.43 354 3.55 324 3.56 333 3.58 341 4.02
 400  0.917  0.750  0.407- 142 1.97 192 1.97 280 1.97 315 1.97 230 1.98 212 1.98 375 3.42 380 3.42
                           386 3.42 364 3.42 323 3.44 390 3.58
 401  0.583  0.123  0.504-  58 1.84  95 1.95 246 1.97  93 1.98 191 2.01 238 2.09 366 3.37 391 3.39
                           378 3.40 360 3.43 381 3.53 322 3.53 339 3.62 331 3.71
 402  0.752  0.624  0.502- 168 1.90 231 1.94  83 1.97 220 1.98 263 1.98 189 2.06 342 3.40 357 3.41
                           363 3.42 364 3.45 323 3.46 368 3.51 387 3.51 329 3.67
 403  0.584  0.876  0.506-  71 1.84  59 1.92 128 1.96 155 1.99  86 2.06 240 2.10 367 3.37 368 3.38
                           378 3.39 366 3.40 351 3.55 327 3.56 343 3.58 356 3.69
[...]
  350              map_forward                           5.312852                   1542   6
  351                map_gather                            0.103134                  778   7
  352                m_alltoallv_z                         4.730565                  778   7
  353                map_scatter                           0.464572                  778   7
  354              map_backward                          5.818113                   1528   6
  355                map_gather                            0.382528                  764   7
  356                m_alltoallv_z                         5.213181                  764   7
  357                map_scatter                           0.207956                  764   7
  358        ggaall_grid                          10.910202                          135   3
  359        m_sumb_d                              0.181130                          696   3
  360        fewald                                0.010096                           14   3
  361          rsp                                   0.009259                         14   4
  362          rcp                                   0.000725                         14   4
  363        pothar                                0.013965                            7   3
  364          m_sumb_d                              0.010437                          7   4
  365        m_bcast_d                             0.025628                            7   3
  366      potlok_metagga                        0.000008                              7   2
  367      set_dd_magatom                        0.000005                              4   2
  368      set_dd_paw                            0.085055                              7   2
  369        set_rsgf_all                          0.000016                            7   3
  370        m_sumb_d                              0.083317                           49   3
  371      m_bcast_d                             0.001328                              8   2
  372      wavpre_noio                           0.847869                              3   2
  373        stufak                                0.799154                            3   3
  374      eddiag                               67.293266                              3   2
  375        overl                                 0.004011                            3   3
  376        redis_proj                            1.154786                            9   3
  377          m_alltoall_d                          1.151124                       1260   4
  378        fftwav_mpi                            1.671379                          420   3
  379          fft3d_mpi                             1.495484                        420   4
  380            fftbrc_mpi                            1.269148                      420   5
  381              fftbas_plan_mpi                       1.267778                    420   6
  382                dfftw_execute                         0.639237                 1260   7
  383                map_forward                           0.375766                  840   7
  384                  map_gather                            0.037895                420   8
  385                  m_alltoallv_z                         0.138255                420   8
  386                  map_scatter                           0.077091                420   8
  387        hamilt_local                          1.485591                          420   3
  388          vhamil                                0.196847                        420   4
  389          kinhamil                              1.285252                        420   4
  390            fftext_mpi                            1.269589                      420   5
  391              fft3d_mpi                             1.240928                    420   6
  392                fftbrc_mpi                            1.045669                  420   7
  393                  fftbas_plan_mpi                       1.044514                420   8
  394                    dfftw_execute                         0.545544             1260   9
  395                    map_backward                          0.250678              840   9
  396                      map_gather                            0.066005            420  10
  397                      m_alltoallv_z                         0.120207            420  10
  398                      map_scatter                           0.057990            420  10
  399        redis_pw                              1.046600                          423   3
  400          m_alltoall_d                          1.016562                       1260   4
  401        orth1                                 0.854012                          210   3
  402        m_sumb_d                              0.694461                            3   3
  403        shift_bands_between_low_high          0.000004                            3   3
  404        lincom                                0.917530                            3   3
  405      set_charge                            1.761632                              3   2
  406        soft_charge                           1.604114                            3   3
  407          fftwav_mpi                            1.381050                        354   4
  408            fft3d_mpi                             1.241178                      354   5
  409              fftbrc_mpi                            1.056269                    354   6
  410                fftbas_plan_mpi                       1.055107                  354   7
  411                  dfftw_execute                         0.533667               1062   8
  412                  map_forward                           0.301416                708   8
  413                    map_gather                            0.032145              354   9
  414                    m_alltoallv_z                         0.106234              354   9
  415                    map_scatter                           0.065647              354   9
  416          pw_charge                             0.160395                        354   4
  417          m_sumb_d                              0.041479                          3   4
  418          fft_gq                                0.014996                          3   4
  419            fft3d_mpi                             0.014460                        3   5
  420              fftbrc_mpi                            0.013544                      3   6
  421                fftbas_plan_mpi                       0.013535                    3   7
  422                  dfftw_execute                         0.002624                  9   8
  423                  map_backward                          0.009189                  6   8
  424                    map_gather                            0.000988                6   9
  425                    m_alltoallv_z                         0.007733                6   9
  426                    map_scatter                           0.000387                6   9
  427        depsum                                0.005671                            3   3
  428          m_sumb_d                              0.002267                          3   4
  429        augmentation_charge                   0.151292                            3   3
  430          m_sumb_d                              0.007889                          3   4
  431          fft3d_mpi                             0.029989                          3   4
  432            fftbrc_mpi                            0.029306                        3   5
  433              fftbas_plan_mpi                       0.029299                      3   6
  434                dfftw_execute                         0.003436                    9   7
  435                map_backward                          0.023648                    6   7
  436                  map_gather                            0.001280                  3   8
  437                  m_alltoallv_z                         0.021566                  3   8
  438                  map_scatter                           0.000749                  3   8
 
 Flat profile
 ============
 
             routine name                   CPU           calls
 ---------------------------------------------------------------
 edwav                                7966.730179         728
 potlok                               1321.476135         736
 m_alltoall_d                          710.576414     1752198
 m_sumb_d                              630.124706      735247
 dfftw_execute                         589.432566     1237779
 lincom                                568.244487        2197
 m_alltoallv_z                         466.260321      414061
 orth1                                 363.820728      109862
 fftbas_plan_mpi                       255.121476      412593
 choleski                              252.606251         731
 fft3d_mpi                             192.607076      412593
 ggaall_grid                           156.942691         868
 eddiag                                125.075833         374
 fftwav_mpi                            102.691839      251475
 eccp                                  100.725331      203700
 eddav                                  91.341903           5
 map_scatter                            85.878047      414061
 total_time                             83.932185           1
 racc0                                  80.524884       53094
 rpro1                                  75.172825       52394
 map_forward                            71.884163      558726
 map_gather                             56.418599      414061
 pw_charge                              38.598494       86347
 augmentation_charge                    28.754128         732
 vhamil                                 25.512125       54074
 setdij_                                25.029746         841
 w1_dscal                               16.927731       50540
 redis_pw                               11.507715      211944
 m_bcast_z                              11.165988        2380
 orthch                                 10.381057         731
 fftext_mpi                              7.756279      104614
 ggemm                                   7.674835        3254
 force_and_stress                        7.265832           4
 redis_proj                              5.401787      168456
 rpromu                                  5.217271        1820
 m_bcast_d                               4.019864        8414
 lapack                                  3.867051        2554
 overl                                   3.352522       56408
 rpromu_gemm                             2.767859      413140
 map_backward                            2.292378      266460
 elmin_all                               1.854178           4
 rspher_all                              1.851260          53
 kinhamil                                1.824206       54074
 soft_charge                             1.674963         732
 forloc                                  1.668520           4
 forhar                                  1.646902           4
 densta                                  1.390600         743
 fftbrc_mpi                              1.268715      412593
 stufak                                  1.066368           4
 rsp                                     1.018639        1476
 depsum                                  0.832795         732
 hamilt_local                            0.415424       51520
 set_dd_paw                              0.383882         740
 pothar                                  0.377421         736
 w1_copy                                 0.289496        7662
 set_charge                              0.181658         732
 rpro_isp                                0.135030          52
 fft_gq                                  0.117147         732
 apply_precond                           0.100024        1854
 overl1                                  0.092707        2554
 strnlr                                  0.085343           4
 rcp                                     0.076477        1476
 setup_precond                           0.060068         700
 inisym                                  0.058388           1
 wavpre_noio                             0.048715           3
 fewald                                  0.043038        1476
 hamiltmu                                0.039740        2554
 raccmu_                                 0.031151        2554
 newband                                 0.030609        2559
 strehar                                 0.027491           4
 strelo                                  0.024594           4
 fornlr                                  0.023128           4
 strkin                                  0.021152           4
 w1_projall                              0.010594        1854
 redis_pw_all                            0.005126         728
 truncate_high_frequency_w1              0.003275        3254
 redis_pw_over_bands                     0.003009         735
 set_rsgf_all                            0.001747         740
 fordep                                  0.000889           4
 potlok_metagga                          0.000852         736
 brgrid                                  0.000680           1
 phaser                                  0.000320         418
 posmap                                  0.000270           2
 crpa_reader                             0.000237           1
 proall                                  0.000076           4
 rotate_active_occupied_orbital          0.000053           4
 vectorpot                               0.000035           1
 set_dd_magatom                          0.000021           8
 shift_bands_between_low_high            0.000010           7
 ---------------------------------------------------------------
  summed up times    14583.8683240414     
 
 Accumulative profile
 ====================
 
             routine name                   CPU           calls
 ---------------------------------------------------------------
 total_time                          14583.868324           1
 elmin_all                           14314.083246           4
 edwav                               11376.384075         728
 potlok                               1998.347672         736
 fft3d_mpi                            1721.163340      412593
 fftbrc_mpi                           1528.556264      412593
 fftbas_plan_mpi                      1527.287549      412593
 fftwav_mpi                            986.375945      251475
 orthch                                906.104508         731
 m_alltoall_d                          710.576414     1752198
 m_sumb_d                              630.124706      735247
 dfftw_execute                         589.432566     1237779
 lincom                                568.244487        2197
 m_alltoallv_z                         466.260321      414061
 set_charge                            433.149037         732
 map_forward                           423.589408      558726
 soft_charge                           392.697497         732
 redis_proj                            385.438585      168456
 eddiag                                372.394683         374
 orth1                                 363.820728      109862
 redis_pw                              342.047332      211944
 fftext_mpi                            319.278519      104614
 map_backward                          259.144099      266460
 choleski                              252.606251         731
 hamilt_local                          182.560125       51520
 eddav                                 173.672923           5
 kinhamil                              165.810907       54074
 ggaall_grid                           156.942691         868
 eccp                                  113.303786      203700
 racc0                                 102.602642       53094
 rpro1                                  88.595975       52394
 map_scatter                            85.878047      414061
 map_gather                             56.418599      414061
 redis_pw_over_bands                    56.064189         735
 redis_pw_all                           56.061180         728
 force_and_stress                       55.137088           4
 augmentation_charge                    38.726231         732
 pw_charge                              38.598494       86347
 rpro_isp                               37.994389          52
 setdij_                                33.857167         841
 strnlr                                 27.890649           4
 densta                                 27.114589         743
 vhamil                                 25.512125       54074
 w1_dscal                               16.927731       50540
 hamiltmu                               13.863694        2554
 m_bcast_z                              11.165988        2380
 set_dd_paw                              9.589465         740
 fornlr                                  9.289094           4
 rpromu                                  9.275232        1820
 ggemm                                   7.674835        3254
 raccmu_                                 4.645623        2554
 newband                                 4.287716        2559
 m_bcast_d                               4.019864        8414
 fft_gq                                  3.969669         732
 lapack                                  3.867051        2554
 overl                                   3.352522       56408
 w1_projall                              3.068285        1854
 proall                                  2.954547           4
 rpromu_gemm                             2.767859      413140
 pothar                                  2.087185         736
 rspher_all                              1.851260          53
 forloc                                  1.680400           4
 forhar                                  1.677571           4
 depsum                                  1.543651         732
 fewald                                  1.264294        1476
 stufak                                  1.066368           4
 rsp                                     1.018639        1476
 fordep                                  0.952837           4
 wavpre_noio                             0.847869           3
 w1_copy                                 0.289496        7662
 apply_precond                           0.100024        1854
 overl1                                  0.092707        2554
 setup_precond                           0.086665         700
 rcp                                     0.076477        1476
 inisym                                  0.058658           1
 strelo                                  0.032048           4
 strehar                                 0.029352           4
 strkin                                  0.022494           4
 truncate_high_frequency_w1              0.003275        3254
 set_rsgf_all                            0.001747         740
 potlok_metagga                          0.000852         736
 brgrid                                  0.000680           1
 phaser                                  0.000320         418
 posmap                                  0.000270           2
 crpa_reader                             0.000237           1
 rotate_active_occupied_orbital          0.000053           4
 vectorpot                               0.000035           1
 set_dd_magatom                          0.000021           8
 shift_bands_between_low_high            0.000010           7
 ---------------------------------------------------------------
 
Profiling took  10.443546  3.421640  0.007937  0.007147 seconds
Profiling took  12.339549 seconds
