 vasp.6.3.2 27Jun22 (build Jan 03 2024 23:25:20) gamma-only                     
  
 executed on           IFC15_impi date 2024.06.05  05:35:17
 running  512 mpi-ranks, with    1 threads/rank
 distrk:  each k-point on  512 cores,    1 groups
 distr:  one band on NCORE=  32 cores,   16 groups


--------------------------------------------------------------------------------------------------------


 INCAR:
   ENCUT = 500.000000
   SIGMA = 0.010000
   EDIFF = 1.00e-05
   ALGO = A
   ISMEAR = 0
   NELM = 200
   NSW = 999
   NCORE = 32
   LCHARG = .TRUE.
   LWAVE = .TRUE.
   LREAL = Auto
   IBRION = 5
   POTIM = 0.015
   NFREE = 2
   ISYM = 0
   EDIFFG = -0.05
   GGA = BF
   LUSE_VDW = .TRUE.
   ZAB_VDW = -1.8867
   LBEEFENS = .TRUE.
   DIPOL = 0.5 0.5 0.65
   IDIPOL = 3
   LDIPOL = .TRUE.

 POTCAR:    PAW_PBE Au 04Oct2007                  
 POTCAR:    PAW_PBE O 08Apr2002                   
 POTCAR:    PAW_PBE Sr_sv 07Sep2000               
 POTCAR:    PAW_PBE Ti_sv 26Sep2005               
 POTCAR:    PAW_PBE H 15Jun2001                   
 -----------------------------------------------------------------------------
|                                                                             |
|               ----> ADVICE to this user running VASP <----                  |
|                                                                             |
|     You have switched on vdW-DFT.                                           |
|     This routine was written and supplied by Jiri Klimes. We recommend      |
|     that you carefully read and cite the following publications:            |
|       J. Klimes, D.R. Bowler, A. Michelides                                 |
|          J. Phys.: Cond Matt. 22 022201 (2010)                              |
|       J. Klimes, D.R. Bowler, A. Michelides                                 |
|          Phys. Rev. B. 83, 195131 (2011)                                    |
|     and references therein.                                                 |
|                                                                             |
 -----------------------------------------------------------------------------

 POTCAR:    PAW_PBE Au 04Oct2007                  
   SHA256 =  d0044ae04e2bdce24051b198fc5c053d722a5bc6fe3c3b100514a13fc5d2db88 Au/POTCAR             
   COPYR  = (c) Copyright 04Oct2007 Georg Kresse                                                    
   COPYR  = This file is part of the software VASP. Any use, copying, and all other rights are regul
   COPYR  = If you do not have a valid VASP license, you may not use, copy or distribute this file. 
   VRHFIN =Au: s1d10                                                                                
   LEXCH  = PE                                                                                      
   EATOM  =   926.0867 eV,   68.0654 Ry                                                             
                                                                                                    
   TITEL  = PAW_PBE Au 04Oct2007                                                                    
   LULTRA =        F    use ultrasoft PP ?                                                          
   IUNSCR =        1    unscreen: 0-lin 1-nonlin 2-no                                               
   RPACOR =    2.330    partial core radius                                                         
   POMASS =  196.966; ZVAL   =   11.000    mass and valenz                                          
   RCORE  =    2.500    outmost cutoff radius                                                       
   RWIGS  =    2.840; RWIGS  =    1.503    wigner-seitz radius (au A)                               
   ENMAX  =  229.943; ENMIN  =  172.457 eV                                                          
   ICORE  =        3    local potential                                                             
   LCOR   =        T    correct aug charges                                                         
   LPAW   =        T    paw PP                                                                      
   EAUG   =  356.670                                                                                
   DEXC   =    0.000                                                                                
   RMAX   =    2.562    core radius for proj-oper                                                   
   RAUG   =    1.300    factor for augmentation sphere                                              
   RDEP   =    2.598    radius for radial grids                                                     
   RDEPT  =    2.193    core radius for aug-charge                                                  
                                                                                                    
   Atomic configuration                                                                             
   16 entries                                                                                       
     n  l   j            E        occ.                                                              
     1  0  0.50    -80748.5001   2.0000                                                             
     2  0  0.50    -14244.7466   2.0000                                                             
     2  1  1.50    -12310.9591   6.0000                                                             
     3  0  0.50     -3362.1768   2.0000                                                             
     3  1  1.50     -2801.5463   6.0000                                                             
     3  2  2.50     -2203.8206  10.0000                                                             
     4  0  0.50      -729.8168   2.0000                                                             
     4  1  1.50      -546.0527   6.0000                                                             
     4  2  2.50      -325.7302  10.0000                                                             
     4  3  3.50       -81.1472  14.0000                                                             
     5  0  0.50      -108.3201   2.0000                                                             
     5  1  1.50       -59.7479   6.0000                                                             
     5  2  2.50        -6.8783  10.0000                                                             
     6  0  0.50        -5.7602   1.0000                                                             
     6  1  1.50        -6.8029   0.0000                                                             
     5  3  2.50        -1.3606   0.0000                                                             
   Description                                                                                      
     l       E           TYP  RCUT    TYP  RCUT                                                     
     2     -6.8782861     23  2.500                                                                 
     2     -8.2388687     23  2.500                                                                 
     0     -5.7601759     23  2.500                                                                 
     0     -0.8493231     23  2.500                                                                 
     1     -2.7211652     23  2.500                                                                 
     1     27.2116520     23  2.500                                                                 
     3     -1.3605826     23  2.500                                                                 
  local pseudopotential read in
  partial core-charges read in
  partial kinetic energy density read in
  atomic valenz-charges read in
  non local Contribution for L=           2  read in
    real space projection operators read in
  non local Contribution for L=           2  read in
    real space projection operators read in
  non local Contribution for L=           0  read in
    real space projection operators read in
  non local Contribution for L=           0  read in
    real space projection operators read in
  non local Contribution for L=           1  read in
    real space projection operators read in
  non local Contribution for L=           1  read in
    real space projection operators read in
    PAW grid and wavefunctions read in
 
   number of l-projection  operators is LMAX  =           6
   number of lm-projection operators is LMMAX =          18
 
 POTCAR:    PAW_PBE O 08Apr2002                   
   SHA256 =  818f92134a0a090dccd8ba1447fa70422a3b330e708bb4f08108d8ae51209ddf O/POTCAR              
   COPYR  = (c) Copyright 08Apr2002 Georg Kresse                                                    
   COPYR  = This file is part of the software VASP. Any use, copying, and all other rights are regul
   COPYR  = If you do not have a valid VASP license, you may not use, copy or distribute this file. 
   VRHFIN =O: s2p4                                                                                  
   LEXCH  = PE                                                                                      
   EATOM  =   432.3788 eV,   31.7789 Ry                                                             
                                                                                                    
   TITEL  = PAW_PBE O 08Apr2002                                                                     
   LULTRA =        F    use ultrasoft PP ?                                                          
   IUNSCR =        1    unscreen: 0-lin 1-nonlin 2-no                                               
   RPACOR =    1.200    partial core radius                                                         
   POMASS =   16.000; ZVAL   =    6.000    mass and valenz                                          
   RCORE  =    1.520    outmost cutoff radius                                                       
   RWIGS  =    1.550; RWIGS  =    0.820    wigner-seitz radius (au A)                               
   ENMAX  =  400.000; ENMIN  =  300.000 eV                                                          
   ICORE  =        2    local potential                                                             
   LCOR   =        T    correct aug charges                                                         
   LPAW   =        T    paw PP                                                                      
   EAUG   =  605.392                                                                                
   DEXC   =    0.000                                                                                
   RMAX   =    1.553    core radius for proj-oper                                                   
   RAUG   =    1.300    factor for augmentation sphere                                              
   RDEP   =    1.550    radius for radial grids                                                     
   RDEPT  =    1.329    core radius for aug-charge                                                  
                                                                                                    
   Atomic configuration                                                                             
    4 entries                                                                                       
     n  l   j            E        occ.                                                              
     1  0  0.50      -514.6923   2.0000                                                             
     2  0  0.50       -23.9615   2.0000                                                             
     2  1  0.50        -9.0305   4.0000                                                             
     3  2  1.50        -9.5241   0.0000                                                             
   Description                                                                                      
     l       E           TYP  RCUT    TYP  RCUT                                                     
     0    -23.9615318     23  1.200                                                                 
     0     -9.5240782     23  1.200                                                                 
     1     -9.0304911     23  1.520                                                                 
     1      8.1634956     23  1.520                                                                 
     2     -9.5240782      7  1.500                                                                 
  local pseudopotential read in
  partial core-charges read in
  partial kinetic energy density read in
  kinetic energy density of atom read in
  atomic valenz-charges read in
  non local Contribution for L=           0  read in
    real space projection operators read in
  non local Contribution for L=           0  read in
    real space projection operators read in
  non local Contribution for L=           1  read in
    real space projection operators read in
  non local Contribution for L=           1  read in
    real space projection operators read in
    PAW grid and wavefunctions read in
 
   number of l-projection  operators is LMAX  =           4
   number of lm-projection operators is LMMAX =           8
 
 POTCAR:    PAW_PBE Sr_sv 07Sep2000               
   SHA256 =  a8389d3481648516ee67182ee030b298d280b37e29cbbf2d8595f040d757c710 Sr_sv/POTCAR          
   COPYR  = (c) Copyright 07Sep2000 Georg Kresse                                                    
   COPYR  = This file is part of the software VASP. Any use, copying, and all other rights are regul
   COPYR  = If you do not have a valid VASP license, you may not use, copy or distribute this file. 
   VRHFIN =Sr: 4s4p5s                                                                               
   LEXCH  = PE                                                                                      
   EATOM  =   843.0319 eV,   61.9611 Ry                                                             
                                                                                                    
   TITEL  = PAW_PBE Sr_sv 07Sep2000                                                                 
   LULTRA =        F    use ultrasoft PP ?                                                          
   IUNSCR =        1    unscreen: 0-lin 1-nonlin 2-no                                               
   RPACOR =    2.200    partial core radius                                                         
   POMASS =   87.620; ZVAL   =   10.000    mass and valenz                                          
   RCORE  =    2.500    outmost cutoff radius                                                       
   RWIGS  =    4.040; RWIGS  =    2.138    wigner-seitz radius (au A)                               
   ENMAX  =  229.353; ENMIN  =  172.014 eV                                                          
   RCLOC  =    2.201    cutoff for local pot                                                        
   LCOR   =        T    correct aug charges                                                         
   LPAW   =        T    paw PP                                                                      
   EAUG   =  366.804                                                                                
   DEXC   =    0.000                                                                                
   RMAX   =    2.547    core radius for proj-oper                                                   
   RAUG   =    1.300    factor for augmentation sphere                                              
   RDEP   =    2.562    radius for radial grids                                                     
   RDEPT  =    2.128    core radius for aug-charge                                                  
                                                                                                    
   Atomic configuration                                                                             
   10 entries                                                                                       
     n  l   j            E        occ.                                                              
     1  0  0.50    -15934.8930   2.0000                                                             
     2  0  0.50     -2157.6250   2.0000                                                             
     2  1  1.50     -1917.0034   6.0000                                                             
     3  0  0.50      -333.7288   2.0000                                                             
     3  1  1.50      -256.0992   6.0000                                                             
     3  2  2.50      -127.9971  10.0000                                                             
     4  0  0.50       -40.8953   2.0000                                                             
     5  0  0.50        -3.5257   1.9990                                                             
     4  1  1.50       -22.8179   6.0000                                                             
     4  2  1.50        -1.2815   0.0010                                                             
   Description                                                                                      
     l       E           TYP  RCUT    TYP  RCUT                                                     
     0    -40.8953213     23  2.480                                                                 
     0     -3.5257161     23  2.480                                                                 
     1    -22.8178632     23  2.500                                                                 
     1    -24.1784458     23  2.500                                                                 
     2     -1.2814598     23  2.500                                                                 
     2      0.2279365     23  2.500                                                                 
  local pseudopotential read in
  partial core-charges read in
  partial kinetic energy density read in
  atomic valenz-charges read in
  non local Contribution for L=           0  read in
    real space projection operators read in
  non local Contribution for L=           0  read in
    real space projection operators read in
  non local Contribution for L=           1  read in
    real space projection operators read in
  non local Contribution for L=           1  read in
    real space projection operators read in
  non local Contribution for L=           2  read in
    real space projection operators read in
  non local Contribution for L=           2  read in
    real space projection operators read in
    PAW grid and wavefunctions read in
 
   number of l-projection  operators is LMAX  =           6
   number of lm-projection operators is LMMAX =          18
 
 POTCAR:    PAW_PBE Ti_sv 26Sep2005               
   SHA256 =  4d747badb5a5ea28d858fbac70885b3f8929d6fd9e5b0dbe1ecb9878dc164da1 Ti_sv/POTCAR          
   COPYR  = (c) Copyright 26Sep2005 Georg Kresse                                                    
   COPYR  = This file is part of the software VASP. Any use, copying, and all other rights are regul
   COPYR  = If you do not have a valid VASP license, you may not use, copy or distribute this file. 
   VRHFIN =Ti: 3p4s3d                                                                               
   LEXCH  = PE                                                                                      
   EATOM  =  1588.0892 eV,  116.7213 Ry                                                             
                                                                                                    
   TITEL  = PAW_PBE Ti_sv 26Sep2005                                                                 
   LULTRA =        F    use ultrasoft PP ?                                                          
   IUNSCR =        1    unscreen: 0-lin 1-nonlin 2-no                                               
   RPACOR =    2.000    partial core radius                                                         
   POMASS =   47.880; ZVAL   =   12.000    mass and valenz                                          
   RCORE  =    2.300    outmost cutoff radius                                                       
   RWIGS  =    2.300; RWIGS  =    1.217    wigner-seitz radius (au A)                               
   ENMAX  =  274.610; ENMIN  =  205.957 eV                                                          
   ICORE  =        3    local potential                                                             
   LCOR   =        T    correct aug charges                                                         
   LPAW   =        T    paw PP                                                                      
   EAUG   =  482.848                                                                                
   RMAX   =    2.348    core radius for proj-oper                                                   
   RAUG   =    1.300    factor for augmentation sphere                                              
   RDEP   =    2.381    radius for radial grids                                                     
   RDEPT  =    1.930    core radius for aug-charge                                                  
                                                                                                    
   Atomic configuration                                                                             
    8 entries                                                                                       
     n  l   j            E        occ.                                                              
     1  0  0.50     -4865.3608   2.0000                                                             
     2  0  0.50      -533.1368   2.0000                                                             
     2  1  1.50      -440.5031   6.0000                                                             
     3  0  0.50       -59.3186   2.0000                                                             
     4  0  0.50        -3.7291   1.0000                                                             
     3  1  1.50       -35.7012   6.0000                                                             
     3  2  2.50        -1.9157   3.0000                                                             
     4  3  2.50        -1.3606   0.0000                                                             
   Description                                                                                      
     l       E           TYP  RCUT    TYP  RCUT                                                     
     0    -59.3185931     23  1.800                                                                 
     0     -3.7290822     23  2.300                                                                 
     1    -35.7012045     23  2.300                                                                 
     1     -1.3605826     23  2.300                                                                 
     2     -1.9156920     23  2.300                                                                 
     2     -0.0236318     23  2.300                                                                 
     3     -1.3605826     23  2.300                                                                 
  local pseudopotential read in
  partial core-charges read in
  partial kinetic energy density read in
  atomic valenz-charges read in
  non local Contribution for L=           0  read in
    real space projection operators read in
  non local Contribution for L=           0  read in
    real space projection operators read in
  non local Contribution for L=           1  read in
    real space projection operators read in
  non local Contribution for L=           1  read in
    real space projection operators read in
  non local Contribution for L=           2  read in
    real space projection operators read in
  non local Contribution for L=           2  read in
    real space projection operators read in
    PAW grid and wavefunctions read in
 
   number of l-projection  operators is LMAX  =           6
   number of lm-projection operators is LMMAX =          18
 
 POTCAR:    PAW_PBE H 15Jun2001                   
   SHA256 =  030f79b5d3ab3cf0e668861823c8fb652ff669f3e15e46930bd03bfd63a607b6 H/POTCAR              
   COPYR  = (c) Copyright 15Jun2001 Georg Kresse                                                    
   COPYR  = This file is part of the software VASP. Any use, copying, and all other rights are regul
   COPYR  = If you do not have a valid VASP license, you may not use, copy or distribute this file. 
   VRHFIN =H: ultrasoft test                                                                        
   LEXCH  = PE                                                                                      
   EATOM  =    12.4884 eV,    0.9179 Ry                                                             
                                                                                                    
   TITEL  = PAW_PBE H 15Jun2001                                                                     
   LULTRA =        F    use ultrasoft PP ?                                                          
   IUNSCR =        0    unscreen: 0-lin 1-nonlin 2-no                                               
   RPACOR =    0.000    partial core radius                                                         
   POMASS =    1.000; ZVAL   =    1.000    mass and valenz                                          
   RCORE  =    1.100    outmost cutoff radius                                                       
   RWIGS  =    0.700; RWIGS  =    0.370    wigner-seitz radius (au A)                               
   ENMAX  =  250.000; ENMIN  =  200.000 eV                                                          
   RCLOC  =    0.701    cutoff for local pot                                                        
   LCOR   =        T    correct aug charges                                                         
   LPAW   =        T    paw PP                                                                      
   EAUG   =  400.000                                                                                
   RMAX   =    1.123    core radius for proj-oper                                                   
   RAUG   =    1.200    factor for augmentation sphere                                              
   RDEP   =    1.112    radius for radial grids                                                     
   RDEPT  =    0.926    core radius for aug-charge                                                  
                                                                                                    
   Atomic configuration                                                                             
    2 entries                                                                                       
     n  l   j            E        occ.                                                              
     1  0  0.50        -6.4927   1.0000                                                             
     2  1  0.50        -3.4015   0.0000                                                             
   Description                                                                                      
     l       E           TYP  RCUT    TYP  RCUT                                                     
     0     -6.4927494     23  1.100                                                                 
     0      6.8029130     23  1.100                                                                 
     1     -4.0817478     23  1.100                                                                 
  local pseudopotential read in
  atomic valenz-charges read in
  non local Contribution for L=           0  read in
    real space projection operators read in
  non local Contribution for L=           0  read in
    real space projection operators read in
  non local Contribution for L=           1  read in
    real space projection operators read in
    PAW grid and wavefunctions read in
 
   number of l-projection  operators is LMAX  =           3
   number of lm-projection operators is LMMAX =           5
 
 Optimization of the real space projectors (new method)

 maximal supplied QI-value         = 15.12
 optimisation between [QCUT,QGAM] = [ 11.34, 22.83] = [ 36.00,145.93] Ry 
 Optimized for a Real-space Cutoff    1.39 Angstroem

   l    n(q)    QCUT    max X(q) W(low)/X(q) W(high)/X(q)  e(spline) 
   2      9    11.338    60.898    0.39E-03    0.42E-03    0.21E-06
   2      9    11.338    58.894    0.40E-03    0.42E-03    0.22E-06
   0      9    11.338   109.617    0.13E-03    0.20E-04    0.13E-06
   0      9    11.338    75.026    0.13E-03    0.20E-04    0.13E-06
   1      9    11.338    16.344    0.33E-04    0.24E-03    0.18E-06
   1      9    11.338    10.160    0.26E-04    0.19E-03    0.15E-06
 Optimization of the real space projectors (new method)

 maximal supplied QI-value         = 24.76
 optimisation between [QCUT,QGAM] = [ 11.39, 22.77] = [ 36.31,145.25] Ry 
 Optimized for a Real-space Cutoff    1.00 Angstroem

   l    n(q)    QCUT    max X(q) W(low)/X(q) W(high)/X(q)  e(spline) 
   0      7    11.387    20.381    0.39E-03    0.13E-02    0.15E-06
   0      7    11.387    15.268    0.42E-03    0.14E-02    0.17E-06
   1      6    11.387     5.964    0.41E-03    0.11E-02    0.17E-06
   1      6    11.387     5.382    0.39E-03    0.87E-03    0.15E-06
 Optimization of the real space projectors (new method)

 maximal supplied QI-value         = 15.12
 optimisation between [QCUT,QGAM] = [ 11.34, 22.83] = [ 36.00,145.93] Ry 
 Optimized for a Real-space Cutoff    1.56 Angstroem

   l    n(q)    QCUT    max X(q) W(low)/X(q) W(high)/X(q)  e(spline) 
   0     11    11.338    11.565    0.26E-04    0.80E-05    0.70E-07
   0     11    11.338    10.214    0.41E-04    0.15E-04    0.15E-06
   1     10    11.338   189.983    0.18E-03    0.52E-04    0.42E-06
   1     10    11.338   193.105    0.19E-03    0.52E-04    0.42E-06
   2     10    11.338   115.941    0.22E-03    0.42E-03    0.43E-06
   2     10    11.338    76.444    0.21E-03    0.41E-03    0.42E-06
 Optimization of the real space projectors (new method)

 maximal supplied QI-value         = 16.25
 optimisation between [QCUT,QGAM] = [ 11.38, 22.75] = [ 36.24,144.96] Ry 
 Optimized for a Real-space Cutoff    1.27 Angstroem

   l    n(q)    QCUT    max X(q) W(low)/X(q) W(high)/X(q)  e(spline) 
   0      9    11.376    12.277    0.53E-04    0.25E-04    0.25E-07
   0      9    11.376    11.419    0.89E-04    0.67E-05    0.35E-07
   1      8    11.376     4.010    0.13E-03    0.11E-03    0.29E-07
   1      8    11.376     6.182    0.94E-04    0.19E-03    0.11E-06
   2      8    11.376    47.177    0.13E-03    0.88E-03    0.24E-06
   2      8    11.376    42.437    0.13E-03    0.86E-03    0.23E-06
 Optimization of the real space projectors (new method)

 maximal supplied QI-value         = 34.20
 optimisation between [QCUT,QGAM] = [ 11.29, 22.57] = [ 35.68,142.71] Ry 
 Optimized for a Real-space Cutoff    1.16 Angstroem

   l    n(q)    QCUT    max X(q) W(low)/X(q) W(high)/X(q)  e(spline) 
   0      8    11.287    19.460    0.40E-03    0.73E-03    0.16E-06
   0      8    11.287    12.209    0.38E-03    0.70E-03    0.15E-06
   1      7    11.287     4.655    0.22E-03    0.25E-04    0.22E-06
 -----------------------------------------------------------------------------
|                                                                             |
|               ----> ADVICE to this user running VASP <----                  |
|                                                                             |
|     You enforced a specific xc type in the INCAR file but a different       |
|     type was found in the POTCAR file.                                      |
|     I HOPE YOU KNOW WHAT YOU ARE DOING!                                     |
|                                                                             |
 -----------------------------------------------------------------------------

  PAW_PBE Au 04Oct2007                  :
 energy of atom  1       EATOM= -926.0867
 kinetic energy error for atom=    0.0042 (will be added to EATOM!!)
  PAW_PBE O 08Apr2002                   :
 energy of atom  2       EATOM= -432.3788
 kinetic energy error for atom=    0.0224 (will be added to EATOM!!)
  PAW_PBE Sr_sv 07Sep2000               :
 energy of atom  3       EATOM= -843.0319
 kinetic energy error for atom=    0.0012 (will be added to EATOM!!)
  PAW_PBE Ti_sv 26Sep2005               :
 energy of atom  4       EATOM=-1588.0892
 kinetic energy error for atom=    0.0046 (will be added to EATOM!!)
  PAW_PBE H 15Jun2001                   :
 energy of atom  5       EATOM=  -12.4884
 kinetic energy error for atom=    0.0020 (will be added to EATOM!!)
 
 
 POSCAR: Au O  Sr Ti H
  positions in cartesian coordinates
  No initial velocities read in
 exchange correlation table for  LEXCH =       17
   RHO(1)=    0.500       N(1)  =     2000
   RHO(2)=  100.500       N(2)  =     4000

 VTST: version 4.1, (05/19/21)

 CHAIN: initializing optimizer
 
 OPT: Using VASP Dynamics algorithm
 CHAIN: Read ICHAIN            0
 
 POSCAR: Au O  Sr Ti H
  positions in cartesian coordinates
  No initial velocities read in
 


--------------------------------------------------------------------------------------------------------


 ion  position               nearest neighbor table
   1  0.717  0.526  0.754-  15 2.71  16 2.73  14 2.78  44 2.83   2 2.86  29 2.96  46 2.98  36 3.52

   2  0.623  0.573  0.705- 264 2.08  15 2.84  48 2.84  16 2.86   1 2.86  46 2.92  12 2.97  36 3.07
                            11 3.35   5 3.48 380 3.69
   3  0.719  0.259  0.692- 294 2.06 253 2.08  32 2.65  43 2.79  27 2.83 401 3.05 370 4.02 371 4.05

   4  0.294  0.746  0.697- 310 2.06 266 2.06   9 2.78  23 2.81  50 3.07  42 3.17  45 3.54 368 4.19
                           372 4.22
   5  0.511  0.604  0.776-  26 2.67  48 2.77  13 2.84  12 2.93  47 2.94  39 2.95  16 3.02   6 3.09
                            49 3.37   2 3.48  31 3.49
   6  0.578  0.721  0.791-  18 2.75  17 2.77  36 2.79  47 2.81  13 3.02  48 3.06   5 3.09  16 3.33

   7  0.549  0.384  0.829-  10 2.76  33 2.80  20 2.87  29 2.87  31 2.97  34 2.97  12 3.04  41 3.38

   8  0.241  0.467  0.710- 309 2.12  19 2.68  24 2.81  45 2.84  40 2.94  35 3.06 378 4.16
   9  0.284  0.661  0.765-  45 2.69  30 2.75  50 2.77   4 2.78  24 2.80
  10  0.602  0.290  0.787-   7 2.76  41 2.79  32 2.80  27 2.80  43 2.80  25 3.09  34 3.26
  11  0.514  0.484  0.678- 279 2.11 247 2.15  26 2.69  12 2.78  49 2.90  34 2.91 389 3.13  46 3.32
                             2 3.35 375 3.55  37 3.59 386 4.05
  12  0.562  0.486  0.762-  11 2.78  34 2.80  49 2.84  29 2.84  31 2.88   5 2.93  46 2.97   2 2.97
                            16 2.99   7 3.04
  13  0.463  0.696  0.830-  50 2.81  30 2.84   5 2.84  47 2.85  18 2.91  39 2.91   6 3.02
  14  0.764  0.432  0.705- 254 2.01  44 2.72   1 2.78  46 2.79  43 2.88 363 3.74 370 4.23
  15  0.736  0.613  0.692- 292 2.05 250 2.11  36 2.71   1 2.71   2 2.84  28 3.37 380 3.39 365 3.66

  16  0.634  0.585  0.799-  36 2.71   1 2.73  47 2.77  31 2.83   2 2.86  12 2.99   5 3.02  29 3.25
                             6 3.33
  17  0.591  0.785  0.712- 257 2.11   6 2.77  18 2.86  48 2.88  28 3.04  36 3.39 379 4.18 384 4.26

  18  0.485  0.778  0.757-   6 2.75  23 2.82  50 2.86  17 2.86  13 2.91  42 2.93  48 3.29
  19  0.349  0.501  0.698- 291 2.11   8 2.68  49 2.89  37 2.89  24 2.90  40 2.94  45 2.99  26 3.02
                           368 4.14 369 4.27
  20  0.430  0.372  0.815-  33 2.78  21 2.79   7 2.87  49 2.92  41 2.93  40 2.97  38 3.04  34 3.18

  21  0.372  0.298  0.755-  37 2.77  35 2.78  20 2.79  40 2.84  41 2.86  22 2.86
  22  0.441  0.228  0.697- 302 2.01 289 2.16  41 2.74  25 2.78  21 2.86  37 3.60 376 3.87 367 4.35

  23  0.391  0.817  0.707- 290 2.07  42 2.78  50 2.80   4 2.81  18 2.82 372 3.65 384 4.11
  24  0.290  0.537  0.778-   9 2.80  38 2.80   8 2.81  45 2.88  40 2.89  30 2.89  19 2.90
  25  0.556  0.210  0.711- 311 2.13  22 2.78  41 2.84  27 2.87  32 2.87  10 3.09 376 3.95
  26  0.453  0.580  0.702- 291 2.11   5 2.67  11 2.69  42 2.73  49 2.86  48 2.91  19 3.02 386 3.62
                           368 4.36
  27  0.614  0.321  0.698- 263 2.03  43 2.76  10 2.80   3 2.83  34 2.86  25 2.87  46 2.87  32 3.49
                           370 3.56 375 4.22
  28  0.716  0.763  0.695- 459 1.72 293 2.02 250 2.17  36 2.72  17 3.04 400 3.25  15 3.37 379 3.90

  29  0.655  0.442  0.812-  12 2.84  44 2.86  31 2.86   7 2.87  43 2.90   1 2.96  16 3.25  46 3.47

  30  0.369  0.619  0.819-   9 2.75  39 2.78  13 2.84  38 2.85  24 2.89  50 2.96
  31  0.570  0.510  0.857-  33 2.78  16 2.83  29 2.86  12 2.88  47 2.90  39 2.92   7 2.97   5 3.49

  32  0.665  0.194  0.752-   3 2.65  10 2.80  25 2.87  27 3.49  43 3.51
  33  0.471  0.450  0.879-  20 2.78  31 2.78  39 2.79   7 2.80  38 2.82
  34  0.516  0.377  0.734-  12 2.80  41 2.81  49 2.86  27 2.86  11 2.91   7 2.97  37 3.09  20 3.18
                            10 3.26 375 4.18
  35  0.283  0.338  0.703- 267 2.06  21 2.78  40 2.82  37 2.91   8 3.06 369 3.54 378 4.08
  36  0.678  0.678  0.754- 459 1.78  16 2.71  15 2.71  28 2.72   6 2.79   2 3.07  17 3.39   1 3.52
                            48 3.57
  37  0.398  0.382  0.690- 303 2.03 289 2.13  21 2.77  19 2.89  35 2.91  40 3.00  49 3.06  34 3.09
                           369 3.38  11 3.59  22 3.60 375 3.78
  38  0.375  0.493  0.833-  24 2.80  33 2.82  49 2.84  40 2.84  30 2.85  39 2.88  20 3.04
  39  0.462  0.573  0.863-  30 2.78  33 2.79  47 2.82  38 2.88  13 2.91  31 2.92   5 2.95
  40  0.326  0.414  0.769-  35 2.82  21 2.84  38 2.84  24 2.89  19 2.94   8 2.94  20 2.97  37 3.00
                            49 3.10
  41  0.487  0.268  0.775-  22 2.74  10 2.79  34 2.81  25 2.84  21 2.86  20 2.93   7 3.38
  42  0.420  0.697  0.700- 256 2.03  26 2.73  50 2.77  23 2.78  18 2.93  48 2.99   4 3.17 368 4.06
                           386 4.07
  43  0.700  0.347  0.757-  27 2.76   3 2.79  10 2.80  44 2.81  14 2.88  29 2.90  46 3.10  32 3.51

  44  0.774  0.430  0.796-  14 2.72  43 2.81   1 2.83  29 2.86
  45  0.257  0.592  0.695- 265 2.03 310 2.11   9 2.69   8 2.84  24 2.88  19 2.99   4 3.54 368 3.57
                           373 3.71
  46  0.647  0.445  0.697- 279 2.18  14 2.79  27 2.87   2 2.92  12 2.97   1 2.98  43 3.10  11 3.32
                            29 3.47 370 3.53
  47  0.564  0.639  0.861-  16 2.77   6 2.81  39 2.82  13 2.85  31 2.90   5 2.94
  48  0.543  0.668  0.701- 280 2.09   5 2.77   2 2.84  17 2.88  26 2.91  42 2.99   6 3.06  18 3.29
                           386 3.48  36 3.57
  49  0.443  0.475  0.756-  12 2.84  38 2.84  34 2.86  26 2.86  19 2.89  11 2.90  20 2.92  37 3.06
                            40 3.10   5 3.37
  50  0.373  0.739  0.778-   9 2.77  42 2.77  23 2.80  13 2.81  18 2.86  30 2.96   4 3.07
  51  0.250  0.189  0.454- 448 1.97 418 2.13 319 2.73 360 2.81 342 2.82 327 2.85
  52  0.750  0.938  0.455- 417 1.96 444 2.00 350 2.82 339 2.84 322 2.84 332 2.88
  53  0.749  0.689  0.457- 432 1.97 446 2.04 325 2.77 362 2.84 348 2.84 316 2.88
  54  0.750  0.438  0.456- 422 1.99 458 2.01 323 2.71 347 2.83 359 2.84 349 2.84
  55  0.750  0.190  0.456- 445 1.98 423 2.11 324 2.75 335 2.80 358 2.84 346 2.85
  56  0.417  0.936  0.454- 424 2.00 440 2.01 357 2.77 345 2.78 329 2.88 320 2.91
  57  0.417  0.685  0.455- 414 1.91 443 2.04 356 2.77 344 2.78 321 2.83 331 2.91
  58  0.416  0.435  0.454- 415 1.96 442 2.01 343 2.77 355 2.78 333 2.83 318 2.85
  59  0.085  0.687  0.453- 439 1.97 413 2.09 352 2.76 340 2.80 330 2.82 336 2.93
  60  0.084  0.937  0.454- 436 1.99 412 2.11 353 2.77 341 2.80 326 2.89 338 2.91
  61  0.083  0.437  0.453- 438 1.97 421 2.11 361 2.76 351 2.78 328 2.80 317 2.92
  62  0.084  0.187  0.453- 437 1.98 433 2.12 360 2.76 385 2.78 327 2.87 337 2.89
  63  0.917  0.812  0.454- 434 1.98 411 2.12 362 2.75 339 2.80 341 2.80 336 2.88
  64  0.916  0.562  0.454- 435 1.98 410 2.11 349 2.77 316 2.79 340 2.80 317 2.89
  65  0.251  0.439  0.455- 449 1.97 420 2.07 318 2.70 343 2.81 328 2.85 351 2.85
  66  0.916  0.062  0.454- 455 1.98 430 2.11 358 2.79 385 2.81 332 2.85 338 2.89
  67  0.916  0.312  0.454- 456 1.98 429 2.09 359 2.79 361 2.80 335 2.81 337 2.89
  68  0.417  0.187  0.454- 441 1.98 416 2.07 354 2.77 342 2.80 334 2.81 319 2.88
  69  0.252  0.687  0.456- 419 1.99 450 2.03 321 2.77 344 2.79 352 2.86 330 2.89
  70  0.916  0.937  0.454- 455 1.98 411 2.11 339 2.78 341 2.79 332 2.88 338 2.90
  71  0.583  0.189  0.455- 452 1.98 426 2.09 334 2.72 324 2.78 354 2.82 346 2.85
  72  0.000  0.125  0.498- 430 1.97 433 1.98 385 2.74 337 2.79 338 2.80
  73  0.583  0.810  0.455- 454 1.98 431 2.10 325 2.73 331 2.75 357 2.84 350 2.84
  74  1.000  0.373  0.498- 429 1.94 421 1.95 361 2.74 337 2.77 317 2.85
  75  0.000  0.627  0.498- 413 1.94 410 1.94 340 2.72 336 2.77 317 2.84
  76  0.334  0.126  0.498- 416 1.95 418 2.01 319 2.74 342 2.74 320 2.79 367 3.45
  77  0.000  0.875  0.500- 411 1.97 412 1.97 341 2.78 336 2.79 338 2.79
  78  0.333  0.874  0.499- 424 1.98 425 2.00 321 2.74 345 2.76 320 2.85 372 3.12
  79  0.666  0.126  0.499- 426 1.96 423 2.01 324 2.72 346 2.76 322 2.82 371 3.38
  80  0.335  0.625  0.504- 414 1.94 419 2.06 368 2.74 318 2.81 321 2.81 344 2.91
  81  0.334  0.378  0.503- 415 1.94 420 2.08 318 2.70 369 2.70 343 2.88 319 2.91
  82  0.665  0.379  0.503- 428 1.94 422 2.06 323 2.70 370 2.73 347 2.89 324 2.92
  83  0.916  0.687  0.453- 434 1.98 410 2.10 316 2.76 340 2.79 362 2.80 336 2.94
  84  0.916  0.437  0.454- 435 1.98 429 2.10 349 2.77 359 2.77 361 2.80 317 2.92
  85  0.916  0.187  0.453- 456 1.98 430 2.12 358 2.76 335 2.78 385 2.79 337 2.91
  86  0.583  0.936  0.454- 451 2.01 431 2.04 357 2.78 350 2.79 329 2.86 322 2.88
  87  0.583  0.686  0.455- 427 1.91 454 2.02 356 2.78 348 2.80 325 2.84 331 2.85
  88  0.583  0.439  0.456- 453 2.00 428 2.01 333 2.71 323 2.78 355 2.83 347 2.85
  89  0.250  0.936  0.454- 425 1.94 447 2.01 353 2.78 345 2.78 320 2.89 326 2.92
  90  0.665  0.626  0.503- 427 1.93 432 2.07 380 2.72 325 2.81 323 2.82 348 2.88
  91  0.584  0.562  0.455- 427 2.00 453 2.00 333 2.77 323 2.79 348 2.80 356 2.83
  92  0.583  0.063  0.455- 451 2.00 426 2.02 354 2.80 346 2.81 322 2.86 329 2.86
  93  0.917  0.687  0.361- 434 1.97 340 2.79 316 2.79
  94  0.917  0.437  0.361- 435 1.97 361 2.79 359 2.79
  95  0.917  0.188  0.361- 456 1.97 385 2.79 358 2.79
  96  0.583  0.938  0.361- 451 1.97 357 2.79 350 2.79
  97  0.583  0.687  0.361- 454 1.97 356 2.79 348 2.79
  98  0.583  0.437  0.361- 453 1.97 355 2.79 347 2.79
  99  0.583  0.188  0.361- 452 1.97 354 2.79 346 2.79
 100  0.250  0.938  0.361- 447 1.97 353 2.79 345 2.79
 101  0.917  0.938  0.361- 455 1.97 341 2.79 339 2.79
 102  0.250  0.687  0.361- 450 1.97 352 2.79 344 2.79
 103  0.250  0.188  0.361- 448 1.97 360 2.79 342 2.79
 104  0.750  0.938  0.361- 444 1.97 350 2.79 339 2.79
 105  0.750  0.687  0.361- 446 1.97 348 2.79 316 2.79
 106  0.750  0.437  0.361- 458 1.97 347 2.79 359 2.79
 107  0.750  0.188  0.361- 445 1.97 346 2.79 358 2.79
 108  0.417  0.938  0.361- 440 1.97 345 2.79 357 2.79
 109  0.417  0.687  0.361- 443 1.97 344 2.79 356 2.79
 110  0.417  0.437  0.361- 442 1.97 343 2.79 355 2.79
 111  0.250  0.437  0.361- 449 1.97 351 2.79 343 2.79
 112  0.083  0.063  0.361- 436 1.97 385 2.79 360 2.79
 113  0.083  0.312  0.361- 437 1.97 361 2.79 351 2.79
 114  0.083  0.563  0.361- 438 1.97 352 2.79 340 2.79
 115  0.917  0.312  0.361- 456 1.97 361 2.79 359 2.79
 116  0.917  0.063  0.361- 455 1.97 385 2.79 358 2.79
 117  0.583  0.812  0.361- 454 1.97 357 2.79 350 2.79
 118  0.583  0.563  0.361- 453 1.97 356 2.79 348 2.79
 119  0.583  0.312  0.361- 452 1.97 355 2.79 347 2.79
 120  0.583  0.063  0.361- 451 1.97 354 2.79 346 2.79
 121  0.250  0.812  0.361- 450 1.97 353 2.79 345 2.79
 122  0.250  0.563  0.361- 449 1.97 352 2.79 344 2.79
 123  0.250  0.312  0.361- 448 1.97 351 2.79 343 2.79
 124  0.250  0.063  0.361- 447 1.97 360 2.79 342 2.79
 125  0.750  0.812  0.361- 446 1.97 350 2.79 339 2.79
 126  0.750  0.563  0.361- 458 1.97 348 2.79 316 2.79
 127  0.750  0.312  0.361- 445 1.97 347 2.79 359 2.79
 128  0.750  0.063  0.361- 444 1.97 346 2.79 358 2.79
 129  0.417  0.812  0.361- 443 1.97 345 2.79 357 2.79
 130  0.417  0.563  0.361- 442 1.97 344 2.79 356 2.79
 131  0.417  0.312  0.361- 441 1.97 343 2.79 355 2.79
 132  0.417  0.063  0.361- 440 1.97 342 2.79 354 2.79
 133  0.083  0.812  0.361- 439 1.97 353 2.79 341 2.79
 134  0.417  0.188  0.361- 441 1.97 342 2.79 354 2.79
 135  0.083  0.938  0.361- 436 1.97 353 2.79 341 2.79
 136  0.083  0.687  0.361- 439 1.97 352 2.79 340 2.79
 137  0.083  0.437  0.361- 438 1.97 361 2.79 351 2.79
 138  0.833  0.500  0.407- 458 1.97 435 1.97 316 2.79 359 2.79 349 2.87
 139  0.833  0.750  0.407- 446 1.97 434 1.97 339 2.79 316 2.79 362 2.87
 140  0.084  0.062  0.454- 436 1.98 433 2.11 360 2.80 385 2.81 326 2.85 338 2.88
 141  0.084  0.312  0.454- 437 1.97 421 2.10 351 2.80 361 2.80 337 2.86 327 2.89
 142  0.084  0.562  0.454- 438 1.98 413 2.11 328 2.76 352 2.78 340 2.81 317 2.90
 143  0.084  0.812  0.454- 439 1.98 412 2.11 330 2.78 353 2.80 341 2.81 336 2.87
 144  0.417  0.062  0.455- 416 1.96 440 2.00 354 2.82 342 2.83 320 2.84 329 2.84
 145  0.415  0.311  0.457- 415 1.92 441 2.04 334 2.81 319 2.81 343 2.84 355 2.89
 146  0.416  0.559  0.458- 414 1.97 442 2.02 333 2.73 318 2.74 344 2.88 356 2.90
 147  0.417  0.810  0.455- 443 1.97 424 2.09 321 2.75 331 2.78 357 2.84 345 2.85
 148  0.750  0.064  0.453- 444 1.99 423 2.02 346 2.76 358 2.78 322 2.90 332 2.93
 149  0.747  0.314  0.455- 422 1.97 445 2.03 347 2.75 324 2.81 359 2.84 335 2.94
 150  0.748  0.564  0.454- 432 1.98 458 2.01 348 2.74 323 2.76 316 2.80 349 2.93
 151  0.749  0.813  0.453- 446 1.98 417 2.09 350 2.77 339 2.79 325 2.81 362 2.88
 152  0.250  0.062  0.454- 447 1.98 418 2.10 342 2.80 360 2.81 320 2.84 326 2.88
 153  0.915  0.313  0.547- 429 1.84 409 2.21 335 2.71 337 2.75 363 2.86 381 3.33
 154  0.252  0.314  0.454- 420 1.97 448 2.01 343 2.74 319 2.78 351 2.81 327 2.96
 155  0.252  0.565  0.454- 419 1.99 449 2.01 344 2.74 318 2.76 352 2.80 328 2.92
 156  0.250  0.810  0.455- 450 1.98 425 2.08 321 2.77 330 2.81 345 2.84 353 2.84
 157  0.833  0.250  0.407- 445 1.97 456 1.97 359 2.79 358 2.79 335 2.89
 158  0.584  0.315  0.454- 428 1.95 452 2.02 347 2.76 355 2.79 334 2.86 324 2.86
 159  0.833  0.000  0.407- 444 1.97 455 1.97 358 2.79 339 2.79 332 2.98
 160  0.500  0.500  0.407- 453 1.97 442 1.97 355 2.79 356 2.79 333 2.80
 161  0.083  0.188  0.361- 437 1.97 385 2.79 360 2.79
 162  0.000  0.000  0.407- 455 1.97 436 1.97 385 2.79 341 2.79 338 2.99
 163  0.000  0.250  0.407- 456 1.97 437 1.97 361 2.79 385 2.79 337 2.96
 164  0.000  0.500  0.407- 435 1.97 438 1.97 340 2.79 361 2.79 317 3.00
 165  0.000  0.750  0.407- 434 1.97 439 1.97 341 2.79 340 2.79 336 2.99
 166  0.333  0.000  0.407- 440 1.97 447 1.97 342 2.79 345 2.79 320 2.96
 167  0.333  0.250  0.407- 441 1.97 448 1.97 343 2.79 342 2.79 319 2.87
 168  0.333  0.500  0.407- 442 1.97 449 1.97 343 2.79 344 2.79 318 2.82
 169  0.333  0.750  0.407- 443 1.97 450 1.97 345 2.79 344 2.79 321 2.84
 170  0.667  0.000  0.407- 444 1.97 451 1.97 346 2.79 350 2.79 322 2.96
 171  0.667  0.250  0.407- 445 1.97 452 1.97 347 2.79 346 2.79 324 2.88
 172  0.667  0.500  0.407- 458 1.97 453 1.97 347 2.79 348 2.79 323 2.81
 173  0.667  0.750  0.407- 446 1.97 454 1.97 350 2.79 348 2.79 325 2.85
 174  0.167  0.000  0.407- 447 1.97 436 1.97 360 2.79 353 2.79 326 2.99
 175  0.167  0.250  0.407- 448 1.97 437 1.97 351 2.79 360 2.79 327 2.98
 176  0.167  0.500  0.407- 449 1.97 438 1.97 351 2.79 352 2.79 328 2.85
 177  0.167  0.750  0.407- 450 1.97 439 1.97 353 2.79 352 2.79 330 2.90
 178  0.500  0.000  0.407- 451 1.97 440 1.97 354 2.79 357 2.79 329 2.96
 179  0.500  0.250  0.407- 452 1.97 441 1.97 355 2.79 354 2.79 334 2.85
 180  0.500  0.750  0.407- 454 1.97 443 1.97 357 2.79 356 2.79 331 2.90
 181  0.167  0.124  0.499- 418 1.96 433 2.00 326 2.76 360 2.77 327 2.77
 182  0.918  0.063  0.547- 430 1.84 387 2.20 338 2.70 332 2.72 315 3.21 383 3.26
 183  0.168  0.873  0.500- 425 1.94 412 2.02 330 2.72 353 2.79 326 2.86 374 3.53
 184  0.252  0.188  0.547- 418 1.87 395 2.12 319 2.65 327 2.72 367 3.13 377 3.33
 185  0.749  0.934  0.548- 417 1.83 402 2.27 322 2.77 332 2.79 379 2.93 364 3.14
 186  0.752  0.680  0.553- 400 1.96 432 1.97 380 2.64 365 2.83 362 2.96 325 3.00
 187  0.752  0.435  0.549- 422 1.95 399 2.00 370 2.74 349 2.83 323 2.86 363 2.95
 188  0.423  0.444  0.545- 408 1.88 415 2.06 333 2.61 318 2.84 375 2.88 369 3.12
 189  0.422  0.688  0.547- 414 1.94 398 2.01 331 2.69 386 2.76 321 2.86 368 2.91
 190  0.748  0.184  0.551- 423 1.94 401 1.95 324 2.80 335 2.89 371 2.99 383 3.17
 191  0.416  0.937  0.546- 424 1.85 396 2.25 320 2.71 329 2.72 372 2.88 384 3.09
 192  0.084  0.938  0.546- 412 1.84 406 2.19 326 2.67 338 2.69 374 3.23 366 3.34
 193  0.416  0.191  0.546- 397 1.85 416 2.03 319 2.73 334 2.73 376 3.10 367 3.25
 194  0.087  0.689  0.545- 413 1.85 405 2.22 330 2.63 336 2.72 373 2.78
 195  0.082  0.439  0.545- 421 1.84 404 2.22 317 2.65 328 2.69 378 3.07 381 3.35
 196  0.084  0.189  0.545- 433 1.85 403 2.18 327 2.64 337 2.67 315 3.32 377 3.38
 197  0.500  0.125  0.500- 416 1.98 426 1.99 334 2.73 354 2.78 329 2.82 376 3.19
 198  1.000  0.501  0.594- 457 1.95 404 1.95 317 2.62 381 2.94 382 2.98
 199  1.000  0.753  0.592- 405 1.95 407 1.96 336 2.57 366 2.86 382 3.22
 200  0.335  0.254  0.593- 397 1.90 395 2.06 369 2.67 319 2.70 367 3.07
 201  0.334  1.000  0.592- 396 2.00 394 2.03 320 2.59 372 2.73 367 2.75
 202  1.000  0.999  0.593- 387 2.00 406 2.01 338 2.59 315 2.87 366 2.90
 203  0.001  0.250  0.592- 409 1.95 403 1.99 337 2.57 381 2.93 315 2.96
 204  0.333  0.496  0.591- 408 1.85 390 2.15 318 2.69 369 2.75 368 2.86
 205  0.335  0.740  0.591- 398 1.98 391 2.02 368 2.59 321 2.67 372 3.11
 206  0.663  0.248  0.591- 392 1.89 401 2.14 324 2.63 370 2.78 371 2.82
 207  0.666  0.000  0.592- 393 2.00 402 2.02 322 2.59 379 2.71 371 2.84
 208  0.665  0.743  0.590- 388 1.91 400 2.08 380 2.58 325 2.64 379 3.12
 209  0.667  0.493  0.591- 389 1.81 399 2.13 323 2.71 370 2.71 380 2.99
 210  0.168  0.998  0.592- 394 1.98 406 2.02 326 2.57 374 2.89 377 2.92
 211  0.168  0.249  0.593- 395 1.94 403 2.04 327 2.61 378 2.77 377 2.94
 212  0.171  0.750  0.595- 391 1.88 405 2.14 330 2.75 373 2.76 374 2.84
 213  0.249  0.436  0.549- 390 1.94 420 1.97 369 2.65 318 2.81 328 2.84 378 3.04
 214  0.166  0.502  0.588- 390 1.84 404 2.05 328 2.56 373 2.82 378 2.98
 215  0.249  0.683  0.552- 419 1.97 391 1.97 368 2.75 373 2.88 330 2.89 321 2.93
 216  0.581  0.186  0.549- 426 1.94 392 1.98 334 2.74 324 2.83 376 2.93 371 3.06
 217  0.916  0.813  0.547- 411 1.84 407 2.18 362 2.68 336 2.72 364 3.20 366 3.30
 218  0.917  0.563  0.546- 410 1.84 457 2.23 317 2.69 349 2.72 365 2.86
 219  0.581  0.560  0.549- 389 1.89 427 2.09 386 2.69 333 2.75 380 2.84 323 2.87
 220  0.585  0.813  0.550- 431 1.93 388 2.02 325 2.76 331 2.76 379 2.99 384 3.03
 221  0.583  0.312  0.546- 428 1.90 392 2.11 334 2.74 324 2.76 375 2.77 370 2.87
 222  0.583  0.063  0.547- 426 1.84 393 2.22 322 2.71 329 2.72 376 2.96 371 3.08
 223  0.253  0.813  0.551- 391 1.82 425 2.07 321 2.79 372 2.87 330 2.88 374 3.16
 224  0.252  0.559  0.544- 419 1.91 390 2.05 318 2.64 328 2.77 368 2.88 373 3.18
 225  0.249  0.314  0.546- 420 1.85 395 2.30 369 2.65 327 2.72 319 2.73 378 3.04
 226  0.251  0.062  0.547- 418 1.84 394 2.24 320 2.68 326 2.72 367 3.03 377 3.28
 227  0.748  0.808  0.546- 400 1.85 417 2.04 325 2.67 362 2.76 379 3.13 364 3.27
 228  0.747  0.558  0.544- 432 1.96 399 1.97 323 2.61 349 2.78 380 2.87 365 3.22
 229  0.414  0.812  0.548- 424 1.96 398 1.97 321 2.71 331 2.78 372 2.91 384 3.12
 230  0.748  0.060  0.545- 423 1.84 402 2.21 322 2.63 332 2.68 371 3.17 383 3.36
 231  0.748  0.311  0.548- 422 1.97 401 1.99 370 2.66 324 2.75 335 2.84 363 3.02
 232  0.416  0.320  0.553- 397 1.96 415 1.98 375 2.66 369 2.73 319 2.99 334 2.99
 233  0.420  0.565  0.555- 408 1.89 414 2.13 386 2.65 368 2.71 333 2.92 318 3.04
 234  0.417  0.065  0.547- 416 1.84 396 2.25 320 2.74 329 2.77 376 2.94 367 3.07
 235  0.085  0.813  0.547- 412 1.85 405 2.18 330 2.67 336 2.73 374 3.15 366 3.33
 236  0.083  0.564  0.546- 413 1.84 404 2.23 317 2.69 328 2.73 373 2.83
 237  0.086  0.313  0.547- 421 1.84 403 2.24 327 2.68 337 2.77 378 2.89 381 3.34
 238  0.082  0.063  0.548- 433 1.84 406 2.21 338 2.70 326 2.71 315 3.19 377 3.29
 239  0.916  0.939  0.546- 411 1.84 387 2.21 332 2.66 338 2.70 364 3.21 366 3.33
 240  0.914  0.689  0.545- 410 1.84 407 2.24 362 2.64 336 2.72 365 2.82
 241  0.584  0.937  0.546- 431 1.84 393 2.24 322 2.69 329 2.70 379 2.96 384 3.07
 242  0.917  0.189  0.545- 430 1.85 409 2.17 335 2.66 337 2.68 383 3.31 315 3.33
 243  0.916  0.438  0.546- 429 1.85 457 2.23 349 2.68 317 2.70 363 2.95 381 3.35
 244  0.576  0.436  0.552- 389 1.95 428 2.05 375 2.63 333 2.74 370 2.95 323 3.02
 245  0.579  0.686  0.547- 427 1.92 388 2.14 386 2.63 331 2.71 380 2.82 325 2.88
 246  0.252  0.937  0.545- 425 1.83 394 2.23 320 2.67 326 2.73 372 2.93 374 3.29
 247  0.498  0.505  0.609- 408 2.11  11 2.15 389 2.25 386 2.73 375 3.01 333 3.27
 248  0.499  0.253  0.590- 397 1.99 392 2.03 375 2.64 334 2.66 376 2.96
 249  0.500  1.000  0.591- 396 2.00 393 2.01 329 2.56 376 2.76 384 2.82
 250  0.749  0.691  0.654-  15 2.11  28 2.17 400 2.32 365 3.01 380 3.02
 251  0.749  0.936  0.640- 402 1.81 364 2.50 379 2.52
 252  0.254  0.186  0.641- 395 1.74 367 2.52 377 2.55
 253  0.746  0.195  0.647- 401 1.99   3 2.08 371 2.68 383 2.72
 254  0.756  0.436  0.639- 399 1.98  14 2.01 363 2.61 370 2.81
 255  0.417  0.935  0.640- 396 1.79 384 2.53 372 2.58
 256  0.421  0.676  0.634-  42 2.03 398 2.04 386 2.57 368 2.61
 257  0.589  0.811  0.645- 388 1.90  17 2.11 379 2.64 384 2.75
 258  0.916  0.063  0.642- 387 1.80 383 2.49 315 2.50
 259  0.912  0.562  0.642- 457 1.79 382 2.47 365 2.54
 260  0.915  0.312  0.640- 409 1.80 381 2.50 363 2.52
 261  0.914  0.813  0.641- 407 1.79 364 2.50 366 2.51
 262  0.582  0.065  0.640- 393 1.79 371 2.51 376 2.52
 263  0.583  0.320  0.634- 392 1.97  27 2.03 375 2.54 370 2.66
 264  0.593  0.565  0.640- 389 1.98   2 2.08 380 2.63 386 2.86
 265  0.248  0.573  0.629- 390 1.99  45 2.03 373 2.55 368 2.55
 266  0.262  0.798  0.647- 391 1.95   4 2.06 372 2.81 374 2.95
 267  0.250  0.316  0.641- 395 1.94  35 2.06 378 2.59 369 2.65
 268  0.251  0.059  0.642- 394 1.79 367 2.49 377 2.50
 269  0.917  0.563  0.361- 435 1.97 340 2.79 316 2.79
 270  0.499  0.374  0.500- 415 1.97 428 1.99 355 2.78 333 2.81 334 2.82 375 2.86
 271  0.500  0.874  0.501- 424 1.97 431 1.99 331 2.70 357 2.81 329 2.81 384 3.28
 272  0.500  0.621  0.500- 414 1.97 427 1.99 333 2.70 356 2.79 386 2.81 331 2.95
 273  0.832  0.623  0.500- 432 1.89 410 2.06 349 2.75 316 2.79 362 2.87 365 3.09
 274  0.833  0.874  0.499- 417 1.95 411 2.02 362 2.74 339 2.76 332 2.83 364 3.53
 275  0.832  0.373  0.500- 422 1.89 429 2.05 359 2.78 335 2.79 349 2.83 363 3.14
 276  0.833  0.124  0.500- 423 1.95 430 2.02 335 2.76 332 2.78 358 2.78
 277  0.167  0.376  0.498- 420 1.90 421 2.02 351 2.72 328 2.76 327 2.87 378 3.30
 278  0.168  0.624  0.500- 419 1.91 413 2.05 328 2.78 352 2.78 330 2.84 373 3.06
 279  0.582  0.439  0.646- 389 2.10  11 2.11  46 2.18 375 2.86 370 3.02
 280  0.580  0.685  0.639- 388 1.91  48 2.09 386 2.61 380 2.78
 281  0.917  0.187  0.641- 409 1.79 383 2.49 315 2.52
 282  0.582  0.935  0.639- 393 1.80 384 2.50 379 2.51
 283  0.831  0.751  0.593- 400 1.85 407 2.10 362 2.70 365 2.79 364 2.88
 284  0.832  0.248  0.591- 401 1.84 409 2.11 335 2.65 363 2.80 383 2.87
 285  0.833  0.503  0.589- 399 1.83 457 2.06 349 2.59 365 2.80 363 2.96
 286  0.832  0.002  0.592- 402 1.98 387 2.02 332 2.58 383 2.87 364 2.91
 287  0.499  0.755  0.593- 398 1.94 388 2.05 331 2.67 384 2.75 386 2.91
 288  0.418  0.065  0.640- 396 1.80 367 2.51 376 2.54
 289  0.427  0.305  0.655-  37 2.13  22 2.16 397 2.31 375 2.92 369 3.40
 290  0.412  0.813  0.640- 398 1.94  23 2.07 372 2.59 384 2.68
 291  0.397  0.551  0.652-  19 2.11  26 2.11 408 2.15 368 2.78 386 3.49
 292  0.753  0.571  0.633- 399 1.95  15 2.05 365 2.58 380 2.66
 293  0.741  0.809  0.641- 400 1.98  28 2.02 379 2.60 364 2.72
 294  0.747  0.313  0.640- 401 2.00   3 2.06 370 2.62 363 2.74
 295  0.748  0.067  0.639- 402 1.80 371 2.47 383 2.48
 296  0.084  0.312  0.640- 403 1.80 381 2.49 378 2.51
 297  0.666  0.874  0.499- 431 1.97 417 2.00 325 2.73 350 2.77 322 2.82 379 3.25
 298  0.087  0.562  0.641- 404 1.80 382 2.47 373 2.53
 299  0.084  0.061  0.642- 406 1.80 377 2.49 315 2.51
 300  0.087  0.436  0.639- 404 1.79 378 2.51 381 2.52
 301  0.083  0.186  0.641- 403 1.79 315 2.50 377 2.50
 302  0.418  0.188  0.640- 397 2.00  22 2.01 376 2.63 367 2.68
 303  0.415  0.419  0.630-  37 2.03 408 2.07 375 2.54 369 2.59
 304  0.084  0.936  0.641- 406 1.80 374 2.48 366 2.49
 305  0.083  0.687  0.640- 405 1.80 382 2.46 373 2.52
 306  0.913  0.436  0.639- 457 1.80 363 2.52 381 2.53
 307  0.916  0.687  0.640- 407 1.80 382 2.46 365 2.51
 308  0.915  0.937  0.641- 387 1.80 364 2.48 366 2.50
 309  0.241  0.442  0.642- 390 1.89   8 2.12 378 2.62 369 2.93
 310  0.256  0.676  0.663-   4 2.06  45 2.11 368 2.99 373 3.14
 311  0.579  0.191  0.644- 392 1.91  25 2.13 376 2.67 371 2.71
 312  0.252  0.930  0.637- 394 1.81 374 2.47 372 2.49
 313  0.084  0.812  0.642- 405 1.79 374 2.48 366 2.53
 314  0.917  0.812  0.361- 434 1.97 341 2.79 339 2.79
 315  0.001  0.123  0.620- 301 2.50 258 2.50 299 2.51 281 2.52 202 2.87 203 2.96 238 3.19 182 3.21
                           196 3.32 242 3.33 387 3.42 406 3.42 409 3.44 403 3.45 433 3.91 430 3.92
 316  0.833  0.625  0.407-  83 2.76  64 2.79 273 2.79 126 2.79 105 2.79 269 2.79  93 2.79 138 2.79
                           139 2.79 150 2.80  53 2.88 458 3.42 446 3.42 435 3.42 434 3.42 432 3.44
 317  1.000  0.501  0.507- 198 2.62 195 2.65 218 2.69 236 2.69 243 2.70  75 2.84  74 2.85  64 2.89
                           142 2.90  61 2.92  84 2.92 164 3.00 410 3.38 413 3.40 429 3.41 421 3.42
 318  0.331  0.499  0.501- 224 2.64 204 2.69  65 2.70  81 2.70 146 2.74 155 2.76 213 2.81  80 2.81
                           168 2.82 188 2.84  58 2.85 233 3.04 408 3.35 449 3.41 419 3.41 415 3.44
 319  0.330  0.248  0.503- 184 2.65 200 2.70 193 2.73  51 2.73 225 2.73  76 2.74 154 2.78 145 2.81
                           167 2.87  68 2.88  81 2.91 232 2.99 397 3.32 418 3.36 420 3.42 448 3.44
 320  0.333  0.001  0.506- 201 2.59 246 2.67 226 2.68 191 2.71 234 2.74  76 2.79 144 2.84 152 2.84
                            78 2.85  89 2.89  56 2.91 166 2.96 416 3.33 425 3.38 418 3.40 424 3.41
 321  0.334  0.751  0.502- 205 2.67 229 2.71  78 2.74 147 2.75 156 2.77  69 2.77 223 2.79  80 2.81
                            57 2.83 169 2.84 189 2.86 215 2.93 391 3.36 414 3.41 424 3.42 398 3.42
 322  0.666  0.000  0.506- 207 2.59 230 2.63 241 2.69 222 2.71 185 2.77 297 2.82  79 2.82  52 2.84
                            92 2.86  86 2.88 148 2.90 170 2.96 426 3.38 417 3.38 431 3.38 423 3.38
 323  0.668  0.500  0.501- 228 2.61  82 2.70 209 2.71  54 2.71 150 2.76  88 2.78  91 2.79 172 2.81
                            90 2.82 187 2.86 219 2.87 244 3.02 389 3.35 458 3.40 422 3.42 432 3.43
 324  0.667  0.248  0.503- 206 2.63  79 2.72 231 2.75  55 2.75 221 2.76  71 2.78 190 2.80 149 2.81
                           216 2.83 158 2.86 171 2.88  82 2.92 426 3.41 401 3.42 423 3.43 428 3.43
 325  0.666  0.752  0.502- 208 2.64 227 2.67 297 2.73  73 2.73 220 2.76  53 2.77 151 2.81  90 2.81
                            87 2.84 173 2.85 245 2.88 186 3.00 400 3.37 431 3.38 427 3.39 454 3.46
 326  0.166  0.001  0.507- 210 2.57 192 2.67 238 2.71 226 2.72 246 2.73 181 2.76 140 2.85 183 2.86
                           152 2.88  60 2.89  89 2.92 174 2.99 425 3.37 418 3.38 433 3.39 412 3.43
 327  0.166  0.248  0.506- 211 2.61 196 2.64 237 2.68 184 2.72 225 2.72 181 2.77  51 2.85 277 2.87
                            62 2.87 141 2.89 154 2.96 175 2.98 420 3.37 418 3.39 433 3.39 421 3.46
 328  0.164  0.500  0.502- 214 2.56 195 2.69 236 2.73 142 2.76 277 2.76 224 2.77 278 2.78  61 2.80
                           213 2.84  65 2.85 176 2.85 155 2.92 390 3.33 421 3.40 413 3.42 419 3.43
 329  0.500  0.999  0.506- 249 2.56 241 2.70 222 2.72 191 2.72 234 2.77 271 2.81 197 2.82 144 2.84
                            92 2.86  86 2.86  56 2.88 178 2.96 424 3.38 416 3.39 431 3.39 426 3.40
 330  0.165  0.751  0.504- 194 2.63 235 2.67 183 2.72 212 2.75 143 2.78 156 2.81  59 2.82 278 2.84
                           223 2.88 215 2.89  69 2.89 177 2.90 391 3.34 412 3.37 413 3.42 419 3.46
 331  0.501  0.753  0.504- 287 2.67 189 2.69 271 2.70 245 2.71  73 2.75 220 2.76 229 2.78 147 2.78
                            87 2.85 180 2.90  57 2.91 272 2.95 398 3.36 431 3.38 424 3.41 427 3.42
 332  0.834  0.000  0.506- 286 2.58 239 2.66 230 2.68 182 2.72 276 2.78 185 2.79 274 2.83  66 2.85
                            52 2.88  70 2.88 148 2.93 159 2.98 417 3.36 423 3.36 430 3.41 411 3.41
 333  0.501  0.500  0.500- 188 2.61 272 2.70  88 2.71 146 2.73 244 2.74 219 2.75  91 2.77 160 2.80
                           270 2.81  58 2.83 233 2.92 247 3.27 453 3.41 428 3.43 442 3.44 415 3.45
 334  0.501  0.248  0.502- 248 2.66  71 2.72 193 2.73 197 2.73 221 2.74 216 2.74  68 2.81 145 2.81
                           270 2.82 179 2.85 158 2.86 232 2.99 397 3.37 426 3.40 428 3.42 452 3.45
 335  0.835  0.248  0.503- 284 2.65 242 2.66 153 2.71 276 2.76  85 2.78 275 2.79  55 2.80  67 2.81
                           231 2.84 157 2.89 190 2.89 149 2.94 401 3.35 430 3.37 429 3.43 422 3.44
 336  0.000  0.751  0.507- 199 2.57 240 2.72 217 2.72 194 2.72 235 2.73  75 2.77  77 2.79 143 2.87
                            63 2.88  59 2.93  83 2.94 165 2.99 413 3.39 410 3.39 412 3.40 411 3.40
 337  0.001  0.250  0.506- 203 2.57 196 2.67 242 2.68 153 2.75 237 2.77  74 2.77  72 2.79 141 2.86
                            62 2.89  67 2.89  85 2.91 163 2.96 421 3.39 429 3.39 433 3.40 430 3.41
 338  0.000  1.000  0.507- 202 2.59 192 2.69 238 2.70 239 2.70 182 2.70  77 2.79  72 2.80 140 2.88
                            66 2.89  70 2.90  60 2.91 162 2.99 411 3.40 430 3.41 433 3.41 412 3.41
 339  0.833  0.875  0.407- 274 2.76  70 2.78 125 2.79 104 2.79 314 2.79 101 2.79 139 2.79 159 2.79
                           151 2.79  63 2.80  52 2.84 446 3.42 434 3.42 444 3.42 455 3.42 417 3.48
 340  0.000  0.625  0.407-  75 2.72 269 2.79  93 2.79 114 2.79 136 2.79 164 2.79 165 2.79  83 2.79
                            59 2.80  64 2.80 142 2.81 435 3.42 434 3.42 438 3.42 439 3.42 410 3.54
 341  0.000  0.875  0.407-  77 2.78 314 2.79 133 2.79 101 2.79 135 2.79 165 2.79 162 2.79  70 2.79
                            60 2.80  63 2.80 143 2.81 434 3.42 439 3.42 455 3.42 436 3.42 411 3.58
 342  0.333  0.125  0.407-  76 2.74 132 2.79 134 2.79 124 2.79 103 2.79 166 2.79 167 2.79  68 2.80
                           152 2.80  51 2.82 144 2.83 440 3.42 441 3.42 447 3.42 448 3.42 416 3.47
 343  0.333  0.375  0.407- 154 2.74  58 2.77 110 2.79 131 2.79 111 2.79 123 2.79 167 2.79 168 2.79
                            65 2.81 145 2.84  81 2.88 441 3.42 442 3.42 448 3.42 449 3.42 415 3.43
 344  0.333  0.625  0.407- 155 2.74  57 2.78  69 2.79 130 2.79 109 2.79 122 2.79 102 2.79 168 2.79
                           169 2.79 146 2.88  80 2.91 442 3.42 443 3.42 449 3.42 450 3.42 414 3.45
 345  0.333  0.875  0.407-  78 2.76  56 2.78  89 2.78 129 2.79 121 2.79 108 2.79 100 2.79 169 2.79
                           166 2.79 156 2.84 147 2.85 443 3.42 450 3.42 440 3.42 447 3.42 425 3.49
 346  0.667  0.125  0.407- 148 2.76  79 2.76 128 2.79 107 2.79 120 2.79  99 2.79 170 2.79 171 2.79
                            92 2.81  71 2.85  55 2.85 444 3.42 445 3.42 451 3.42 452 3.42 426 3.53
 347  0.667  0.375  0.407- 149 2.75 158 2.76 106 2.79 127 2.79  98 2.79 119 2.79 171 2.79 172 2.79
                            54 2.83  88 2.85  82 2.89 445 3.42 458 3.42 453 3.42 452 3.42 428 3.47
 348  0.667  0.625  0.407- 150 2.74 126 2.79 105 2.79 118 2.79  97 2.79 172 2.79 173 2.79  91 2.80
                            87 2.80  53 2.84  90 2.88 458 3.42 446 3.42 453 3.42 454 3.42 427 3.43
 349  0.836  0.500  0.503- 285 2.59 243 2.68 218 2.72 273 2.75  84 2.77  64 2.77 228 2.78 275 2.83
                           187 2.83  54 2.84 138 2.87 150 2.93 399 3.34 429 3.41 432 3.42 410 3.42
 350  0.667  0.875  0.407- 297 2.77 151 2.77 125 2.79 104 2.79 117 2.79  96 2.79 173 2.79 170 2.79
                            86 2.79  52 2.82  73 2.84 446 3.42 454 3.42 444 3.42 451 3.42 417 3.50
 351  0.167  0.375  0.407- 277 2.72  61 2.78 111 2.79 137 2.79 123 2.79 113 2.79 176 2.79 175 2.79
                           141 2.80 154 2.81  65 2.85 448 3.42 449 3.42 437 3.42 438 3.42 420 3.44
 352  0.167  0.625  0.407-  59 2.76 142 2.78 278 2.78 122 2.79 102 2.79 114 2.79 136 2.79 176 2.79
                           177 2.79 155 2.80  69 2.86 449 3.42 450 3.42 438 3.42 439 3.42 419 3.47
 353  0.167  0.875  0.407-  60 2.77  89 2.78 183 2.79 121 2.79 133 2.79 100 2.79 135 2.79 177 2.79
                           174 2.79 143 2.80 156 2.84 450 3.42 439 3.42 447 3.42 436 3.42 425 3.47
 354  0.500  0.125  0.407-  68 2.77 197 2.78 120 2.79  99 2.79 132 2.79 134 2.79 178 2.79 179 2.79
                            92 2.80  71 2.82 144 2.82 451 3.42 452 3.42 440 3.42 441 3.42 416 3.50
 355  0.500  0.375  0.407-  58 2.78 270 2.78  98 2.79 119 2.79 110 2.79 131 2.79 179 2.79 160 2.79
                           158 2.79  88 2.83 145 2.89 452 3.42 453 3.42 441 3.42 442 3.42 415 3.44
 356  0.500  0.625  0.407-  57 2.77  87 2.78 118 2.79  97 2.79 130 2.79 109 2.79 160 2.79 180 2.79
                           272 2.79  91 2.83 146 2.90 453 3.42 454 3.42 442 3.42 443 3.42 414 3.44
 357  0.500  0.875  0.407-  56 2.77  86 2.78 117 2.79 129 2.79  96 2.79 108 2.79 180 2.79 178 2.79
                           271 2.81 147 2.84  73 2.84 454 3.42 443 3.42 451 3.42 440 3.42 424 3.52
 358  0.833  0.125  0.407-  85 2.76 148 2.78 276 2.78 128 2.79 107 2.79 116 2.79  95 2.79 159 2.79
                           157 2.79  66 2.79  55 2.84 444 3.42 445 3.42 455 3.42 456 3.42 423 3.53
 359  0.833  0.375  0.407-  84 2.77 275 2.78 106 2.79 127 2.79  94 2.79 115 2.79 157 2.79 138 2.79
                            67 2.79 149 2.84  54 2.84 445 3.42 458 3.42 456 3.42 435 3.42 422 3.43
 360  0.167  0.125  0.407-  62 2.76 181 2.77 124 2.79 103 2.79 112 2.79 161 2.79 174 2.79 175 2.79
                           140 2.80 152 2.81  51 2.81 447 3.42 448 3.42 436 3.42 437 3.42 418 3.57
 361  0.000  0.375  0.407-  74 2.74  61 2.76  94 2.79 115 2.79 137 2.79 113 2.79 163 2.79 164 2.79
                            84 2.80 141 2.80  67 2.80 435 3.42 456 3.42 438 3.42 437 3.42 429 3.54
 362  0.836  0.752  0.503- 240 2.64 217 2.68 283 2.70 274 2.74  63 2.75 227 2.76  83 2.80  53 2.84
                           273 2.87 139 2.87 151 2.88 186 2.96 400 3.31 411 3.37 410 3.43 434 3.45
 363  0.837  0.372  0.604- 306 2.52 260 2.52 254 2.61 294 2.74 284 2.80 153 2.86 187 2.95 243 2.95
                           285 2.96 231 3.02 275 3.14 409 3.39 401 3.41 457 3.44 399 3.47 429 3.53
 364  0.832  0.876  0.617- 308 2.48 251 2.50 261 2.50 293 2.72 283 2.88 286 2.91 185 3.14 217 3.20
                           239 3.21 227 3.27 387 3.44 402 3.44 400 3.45 407 3.47 274 3.53 411 3.86
 365  0.840  0.627  0.603- 307 2.51 259 2.54 292 2.58 283 2.79 285 2.80 240 2.82 186 2.83 218 2.86
                           250 3.01 273 3.09 228 3.22 407 3.34 457 3.38 399 3.45 410 3.45 400 3.48
 366  0.999  0.875  0.622- 304 2.49 308 2.50 261 2.51 313 2.53 199 2.86 202 2.90 217 3.30 235 3.33
                           239 3.33 192 3.34 407 3.40 405 3.42 406 3.45 387 3.46 374 3.95 364 3.96
 367  0.332  0.120  0.613- 268 2.49 288 2.51 252 2.52 302 2.68 201 2.75 226 3.03 200 3.07 234 3.07
                           184 3.13 193 3.25 394 3.36 396 3.36 395 3.43  76 3.45 397 3.55 418 3.75
 368  0.334  0.624  0.596- 265 2.55 205 2.59 256 2.61 233 2.71  80 2.74 215 2.75 291 2.78 204 2.86
                           224 2.88 189 2.91 310 2.99 408 3.37 398 3.43 419 3.44 414 3.44 391 3.49
 369  0.326  0.374  0.593- 303 2.59 213 2.65 225 2.65 267 2.65 200 2.67  81 2.70 232 2.73 204 2.75
                           309 2.93 188 3.12 420 3.29  37 3.38 289 3.40 390 3.40 395 3.40 408 3.42
 370  0.671  0.372  0.594- 294 2.62 231 2.66 263 2.66 209 2.71  82 2.73 187 2.74 206 2.78 254 2.81
                           221 2.87 244 2.95 279 3.02 422 3.37 401 3.39 428 3.44 389 3.45 392 3.45
 371  0.665  0.124  0.612- 295 2.47 262 2.51 253 2.68 311 2.71 206 2.82 207 2.84 190 2.99 216 3.06
                           222 3.08 230 3.17  79 3.38 392 3.38 393 3.39 402 3.40 401 3.50 426 3.75
 372  0.335  0.879  0.603- 312 2.49 255 2.58 290 2.59 201 2.73 266 2.81 223 2.87 191 2.88 229 2.91
                           246 2.93 205 3.11  78 3.12 394 3.33 396 3.34 391 3.46 398 3.48 424 3.54
 373  0.159  0.627  0.602- 305 2.52 298 2.53 265 2.55 212 2.76 194 2.78 214 2.82 236 2.83 215 2.88
                           278 3.06 310 3.14 224 3.18 405 3.33 404 3.38 413 3.42 390 3.50 391 3.54
 374  0.166  0.873  0.618- 312 2.47 313 2.48 304 2.48 212 2.84 210 2.89 266 2.95 235 3.15 223 3.16
                           192 3.23 246 3.29 405 3.42 394 3.43 391 3.43 406 3.44 183 3.53 412 3.86
 375  0.502  0.371  0.595- 303 2.54 263 2.54 244 2.63 248 2.64 232 2.66 221 2.77 279 2.86 270 2.86
                           188 2.88 289 2.92 247 3.01 392 3.38 428 3.39 397 3.42 415 3.48 408 3.54
 376  0.500  0.122  0.606- 262 2.52 288 2.54 302 2.63 311 2.67 249 2.76 216 2.93 234 2.94 222 2.96
                           248 2.96 193 3.10 197 3.19 393 3.33 396 3.36 392 3.44 397 3.51 426 3.63
 377  0.168  0.123  0.622- 299 2.49 268 2.50 301 2.50 252 2.55 210 2.92 211 2.94 226 3.28 238 3.29
                           184 3.33 196 3.38 395 3.40 394 3.44 406 3.45 403 3.48 367 3.89 315 3.95
 378  0.163  0.371  0.608- 296 2.51 300 2.51 267 2.59 309 2.62 211 2.77 237 2.89 214 2.98 213 3.04
                           225 3.04 195 3.07 277 3.30 403 3.34 390 3.41 395 3.47 404 3.47 421 3.61
 379  0.666  0.881  0.608- 282 2.51 251 2.52 293 2.60 257 2.64 207 2.71 185 2.93 241 2.96 220 2.99
                           208 3.12 227 3.13 297 3.25 393 3.33 402 3.36 388 3.45 400 3.57 431 3.63
 380  0.667  0.627  0.594- 208 2.58 264 2.63 186 2.64 292 2.66  90 2.72 280 2.78 245 2.82 219 2.84
                           228 2.87 209 2.99 250 3.02 389 3.34 388 3.37  15 3.39 427 3.40 432 3.42
 381  0.000  0.375  0.622- 296 2.49 260 2.50 300 2.52 306 2.53 203 2.93 198 2.94 153 3.33 237 3.34
                           243 3.35 195 3.35 409 3.45 404 3.45 457 3.46 403 3.49 378 3.89 363 3.90
 382  1.000  0.622  0.636- 305 2.46 307 2.46 259 2.47 298 2.47 198 2.98 199 3.22 457 3.47 404 3.48
                           405 3.61 407 3.62 365 3.91 373 3.92 317 4.73 336 4.84
 383  0.833  0.125  0.620- 295 2.48 258 2.49 281 2.49 253 2.72 286 2.87 284 2.87 190 3.17 182 3.26
                           242 3.31 230 3.36 401 3.42 402 3.43 387 3.44 409 3.47 430 3.94 315 3.96
 384  0.501  0.876  0.610- 282 2.50 255 2.53 290 2.68 287 2.75 257 2.75 249 2.82 220 3.03 241 3.07
                           191 3.09 229 3.12 271 3.28 393 3.39 396 3.40 388 3.45 398 3.46 431 3.71
 385  0.000  0.125  0.407-  72 2.74  62 2.78 116 2.79  95 2.79 112 2.79 161 2.79 162 2.79 163 2.79
                            85 2.79  66 2.81 140 2.81 455 3.42 456 3.42 436 3.42 437 3.42 430 3.57
 386  0.504  0.625  0.594- 256 2.57 280 2.61 245 2.63 233 2.65 219 2.69 247 2.73 189 2.76 272 2.81
                           264 2.86 287 2.91 427 3.37 388 3.43 389 3.45 398 3.45 414 3.45  48 3.48
 387  0.916  0.000  0.604- 258 1.80 308 1.80 202 2.00 286 2.02 182 2.20 239 2.21 315 3.42 364 3.44
                           383 3.44 366 3.46 332 3.51 338 3.52
 388  0.586  0.752  0.599- 257 1.90 208 1.91 280 1.91 220 2.02 287 2.05 245 2.14 380 3.37 386 3.43
                           384 3.45 379 3.45 325 3.47 331 3.49
 389  0.591  0.501  0.594- 209 1.81 219 1.89 244 1.95 264 1.98 279 2.10 247 2.25  11 3.13 380 3.34
                           323 3.35 386 3.45 370 3.45 333 3.51 375 3.58
 390  0.243  0.498  0.594- 214 1.84 309 1.89 213 1.94 265 1.99 224 2.05 204 2.15 328 3.33 369 3.40
                           378 3.41 318 3.49 373 3.50 368 3.57
 391  0.250  0.753  0.592- 223 1.82 212 1.88 266 1.95 215 1.97 205 2.02 330 3.34 321 3.36 374 3.43
                           372 3.46 368 3.49 373 3.54
 392  0.584  0.247  0.597- 206 1.89 311 1.91 263 1.97 216 1.98 248 2.03 221 2.11 371 3.38 375 3.38
                           324 3.43 376 3.44 370 3.45 334 3.46
 393  0.583  0.001  0.604- 262 1.79 282 1.80 207 2.00 249 2.01 222 2.22 241 2.24 379 3.33 376 3.33
                           371 3.39 384 3.39 329 3.55 322 3.56
 394  0.250  0.998  0.604- 268 1.79 312 1.81 210 1.98 201 2.03 246 2.23 226 2.24 372 3.33 367 3.36
                           374 3.43 377 3.44 326 3.54 320 3.56
 395  0.249  0.246  0.604- 252 1.74 211 1.94 267 1.94 200 2.06 184 2.12 225 2.30 377 3.40 369 3.40
                           367 3.43 378 3.47 327 3.52 319 3.58
 396  0.417  0.000  0.605- 255 1.79 288 1.80 249 2.00 201 2.00 191 2.25 234 2.25 372 3.34 376 3.36
                           367 3.36 384 3.40 329 3.56 320 3.57
 397  0.415  0.249  0.591- 193 1.85 200 1.90 232 1.96 248 1.99 302 2.00 289 2.31 319 3.32 334 3.37
                           375 3.42 369 3.49 376 3.51 367 3.55
 398  0.418  0.750  0.595- 287 1.94 290 1.94 229 1.97 205 1.98 189 2.01 256 2.04 331 3.36 321 3.42
                           368 3.43 386 3.45 384 3.46 372 3.48
 399  0.756  0.501  0.594- 285 1.83 292 1.95 228 1.97 254 1.98 187 2.00 209 2.13 349 3.34 365 3.45
                           363 3.47 323 3.49 370 3.52 380 3.53
 400  0.752  0.751  0.591- 227 1.85 283 1.85 186 1.96 293 1.98 208 2.08 250 2.32  28 3.25 362 3.31
                           325 3.37 380 3.44 364 3.45 365 3.48 379 3.57
 401  0.754  0.248  0.594- 284 1.84 190 1.95 253 1.99 231 1.99 294 2.00 206 2.14   3 3.05 335 3.35
                           370 3.39 363 3.41 383 3.42 324 3.42 371 3.50
 402  0.750  0.002  0.604- 295 1.80 251 1.81 286 1.98 207 2.02 230 2.21 185 2.27 379 3.36 371 3.40
                           383 3.43 364 3.44 332 3.55 322 3.56
 403  0.083  0.248  0.603- 301 1.79 296 1.80 203 1.99 211 2.04 196 2.18 237 2.24 378 3.34 315 3.45
                           377 3.48 381 3.49 327 3.52 337 3.52
 404  0.081  0.500  0.603- 300 1.79 298 1.80 198 1.95 214 2.05 195 2.22 236 2.23 373 3.38 381 3.45
                           378 3.47 317 3.47 382 3.48 328 3.60
 405  0.081  0.751  0.603- 313 1.79 305 1.80 199 1.95 212 2.14 235 2.18 194 2.22 373 3.33 374 3.42
                           366 3.42 336 3.48 330 3.59 382 3.61
 406  0.084  0.999  0.604- 304 1.80 299 1.80 202 2.01 210 2.02 192 2.19 238 2.21 315 3.42 374 3.44
                           366 3.45 377 3.45 326 3.51 338 3.52
 407  0.918  0.752  0.603- 261 1.79 307 1.80 199 1.96 283 2.10 217 2.18 240 2.24 365 3.34 366 3.40
                           364 3.47 336 3.49 362 3.59 382 3.62
 408  0.411  0.497  0.593- 204 1.85 188 1.88 233 1.89 303 2.07 247 2.11 291 2.15 318 3.35 368 3.37
                           369 3.42 333 3.50 375 3.54 386 3.59
 409  0.920  0.248  0.603- 281 1.79 260 1.80 203 1.95 284 2.11 242 2.17 153 2.21 363 3.39 315 3.44
                           381 3.45 383 3.47 337 3.48 335 3.59
 410  0.919  0.626  0.506- 218 1.84 240 1.84  75 1.94 273 2.06  83 2.10  64 2.11 317 3.38 336 3.39
                           349 3.42 362 3.43 365 3.45 340 3.54 316 3.60
 411  0.917  0.875  0.507- 239 1.84 217 1.84  77 1.97 274 2.02  70 2.11  63 2.12 362 3.37 338 3.40
                           336 3.40 332 3.41 341 3.58 339 3.60 364 3.86 366 3.96
 412  0.083  0.875  0.507- 192 1.84 235 1.85  77 1.97 183 2.02  60 2.11 143 2.11 330 3.37 336 3.40
                           338 3.41 326 3.43 341 3.58 353 3.59 374 3.86 366 3.98
 413  0.082  0.626  0.506- 236 1.84 194 1.85  75 1.94 278 2.05  59 2.09 142 2.11 336 3.39 317 3.40
                           373 3.42 328 3.42 330 3.42 340 3.54 352 3.58
 414  0.417  0.626  0.501-  57 1.91  80 1.94 189 1.94 272 1.97 146 1.97 233 2.13 321 3.41 356 3.44
                           368 3.44 344 3.45 333 3.45 386 3.45 331 3.46 318 3.49
 415  0.416  0.374  0.501- 145 1.92  81 1.94  58 1.96 270 1.97 232 1.98 188 2.06 343 3.43 318 3.44
                           355 3.44 333 3.45 334 3.47 375 3.48 319 3.48 369 3.49
 416  0.416  0.122  0.503- 234 1.84  76 1.95 144 1.96 197 1.98 193 2.03  68 2.07 320 3.33 329 3.39
                           334 3.46 319 3.47 342 3.47 354 3.50 376 3.69 367 3.87
 417  0.751  0.878  0.503- 185 1.83 274 1.95  52 1.96 297 2.00 227 2.04 151 2.09 332 3.36 322 3.38
                           325 3.46 362 3.48 339 3.48 350 3.50 379 3.73 364 3.92
 418  0.249  0.124  0.507- 226 1.84 184 1.87 181 1.96  76 2.01 152 2.10  51 2.13 319 3.36 326 3.38
                           327 3.39 320 3.40 360 3.57 342 3.60 367 3.75 377 3.96
 419  0.248  0.624  0.503- 278 1.91 224 1.91 215 1.97 155 1.99  69 1.99  80 2.06 318 3.41 328 3.43
                           368 3.44 330 3.46 352 3.47 321 3.48 344 3.51 373 3.63
 420  0.247  0.373  0.503- 225 1.85 277 1.90 154 1.97 213 1.97  65 2.07  81 2.08 369 3.29 327 3.37
                           319 3.42 351 3.44 328 3.44 318 3.46 343 3.53 378 3.72
 421  0.082  0.375  0.506- 237 1.84 195 1.84  74 1.95 277 2.02 141 2.10  61 2.11 337 3.39 328 3.40
                           317 3.42 327 3.46 361 3.55 351 3.58 378 3.61 381 4.00
 422  0.753  0.375  0.502- 275 1.89 187 1.95 149 1.97 231 1.97  54 1.99  82 2.06 370 3.37 323 3.42
                           349 3.43 359 3.43 335 3.44 324 3.49 347 3.50 363 3.66
 423  0.751  0.122  0.505- 230 1.84 190 1.94 276 1.95  79 2.01 148 2.02  55 2.11 332 3.36 322 3.38
                           324 3.43 335 3.46 358 3.53 346 3.55 371 3.79 383 3.97
 424  0.417  0.877  0.504- 191 1.85 229 1.96 271 1.97  78 1.98  56 2.00 147 2.09 329 3.38 320 3.41
                           331 3.41 321 3.42 345 3.51 357 3.52 372 3.54 384 3.75
 425  0.249  0.879  0.503- 246 1.83 183 1.94  89 1.94  78 2.00 223 2.07 156 2.08 326 3.37 320 3.38
                           353 3.47 330 3.47 321 3.48 345 3.49 372 3.62 374 3.97
 426  0.583  0.123  0.505- 222 1.84 216 1.94  79 1.96 197 1.99  92 2.02  71 2.09 322 3.38 334 3.40
                           329 3.40 324 3.41 346 3.53 354 3.53 376 3.63 371 3.75
 427  0.584  0.627  0.501-  87 1.91 245 1.92  90 1.93 272 1.99  91 2.00 219 2.09 386 3.37 325 3.39
                           380 3.40 331 3.42 348 3.43 356 3.45 333 3.45 323 3.48
 428  0.584  0.374  0.502- 221 1.90  82 1.94 158 1.95 270 1.99  88 2.01 244 2.05 375 3.39 334 3.42
                           333 3.43 324 3.43 370 3.44 323 3.46 347 3.47 355 3.47
 429  0.919  0.374  0.506- 153 1.84 243 1.85  74 1.94 275 2.05  67 2.09  84 2.10 337 3.39 349 3.41
                           317 3.41 335 3.43 363 3.53 361 3.54 359 3.59 381 3.99
 430  0.918  0.125  0.507- 182 1.84 242 1.85  72 1.97 276 2.02  66 2.11  85 2.12 335 3.37 338 3.41
                           332 3.41 337 3.41 385 3.57 358 3.59 315 3.92 383 3.94
 431  0.584  0.876  0.505- 241 1.84 220 1.93 297 1.97 271 1.99  86 2.04  73 2.10 331 3.38 322 3.38
                           325 3.38 329 3.39 350 3.54 357 3.55 379 3.63 384 3.71
 432  0.753  0.625  0.502- 273 1.89 228 1.96  53 1.97 186 1.97 150 1.98  90 2.07 349 3.42 380 3.42
[...]
  345        fft3d_mpi                            26.828719                         2741   3
  346          fftbrc_mpi                           26.135839                       2741   4
  347            fftbas_plan_mpi                      26.127080                     2741   5
  348              dfftw_execute                         3.509742                   8223   6
  349              map_forward                          10.682963                   2754   6
  350                map_gather                            0.186311                 1390   7
  351                m_alltoallv_z                         9.617671                 1390   7
  352                map_scatter                           0.853153                 1390   7
  353              map_backward                          9.966026                   2728   6
  354                map_gather                            0.682092                 1364   7
  355                m_alltoallv_z                         8.891254                 1364   7
  356                map_scatter                           0.365004                 1364   7
  357        ggaall_grid                          19.155173                          237   3
  358        m_sumb_d                              0.448658                         1224   3
  359        fewald                                0.018820                           26   3
  360          rsp                                   0.017278                         26   4
  361          rcp                                   0.001298                         26   4
  362        pothar                                0.023311                           13   3
  363          m_sumb_d                              0.016727                         13   4
  364        m_bcast_d                             0.042295                           13   3
  365      potlok_metagga                        0.000024                             13   2
  366      set_dd_magatom                        0.000008                              7   2
  367      set_dd_paw                            0.158751                             13   2
  368        set_rsgf_all                          0.000049                           13   3
  369        m_sumb_d                              0.154734                           91   3
  370      wavpre_noio                           1.650863                              6   2
  371        stufak                                1.569390                            6   3
  372      eddiag                              133.310422                              6   2
  373        overl                                 0.008051                            6   3
  374        redis_proj                            1.278281                           18   3
  375          m_alltoall_d                          1.270896                       2520   4
  376        fftwav_mpi                            3.302969                          840   3
  377          fft3d_mpi                             2.955424                        840   4
  378            fftbrc_mpi                            2.506755                      840   5
  379              fftbas_plan_mpi                       2.504198                    840   6
  380                dfftw_execute                         1.270305                 2520   7
  381                map_forward                           0.732656                 1680   7
  382                  map_gather                            0.076204                840   8
  383                  m_alltoallv_z                         0.264468                840   8
  384                  map_scatter                           0.155041                840   8
  385        hamilt_local                          2.975089                          840   3
  386          vhamil                                0.395834                        840   4
  387          kinhamil                              2.571987                        840   4
  388            fftext_mpi                            2.541898                      840   5
  389              fft3d_mpi                             2.485795                    840   6
  390                fftbrc_mpi                            2.092091                  840   7
  391                  fftbas_plan_mpi                       2.089194                840   8
  392                    dfftw_execute                         1.094710             2520   9
  393                    map_backward                          0.502592             1680   9
  394                      map_gather                            0.130066            840  10
  395                      m_alltoallv_z                         0.244937            840  10
  396                      map_scatter                           0.114496            840  10
  397        redis_pw                              1.906583                          846   3
  398          m_alltoall_d                          1.843240                       2520   4
  399        orth1                                 1.722534                          420   3
  400        m_sumb_d                              1.324089                            6   3
  401        shift_bands_between_low_high          0.000006                            6   3
  402        lincom                                1.814864                            6   3
  403      set_charge                            3.482334                              6   2
  404        soft_charge                           3.196286                            6   3
  405          fftwav_mpi                            2.734528                        702   4
  406            fft3d_mpi                             2.461315                      702   5
  407              fftbrc_mpi                            2.099124                    702   6
  408                fftbas_plan_mpi                       2.096810                  702   7
  409                  dfftw_execute                         1.061264               2106   8
  410                  map_forward                           0.598617               1404   8
  411                    map_gather                            0.060621              702   9
  412                    m_alltoallv_z                         0.220798              702   9
  413                    map_scatter                           0.129286              702   9
  414          pw_charge                             0.310786                        702   4
  415          m_sumb_d                              0.105783                          6   4
  416          fft_gq                                0.030774                          6   4
  417            fft3d_mpi                             0.029641                        6   5
  418              fftbrc_mpi                            0.027817                      6   6
  419                fftbas_plan_mpi                       0.027802                    6   7
  420                  dfftw_execute                         0.005413                 18   8
  421                  map_backward                          0.018940                 12   8
  422                    map_gather                            0.002308               12   9
  423                    m_alltoallv_z                         0.015708               12   9
  424                    map_scatter                           0.000771               12   9
  425        depsum                                0.015182                            6   3
  426          m_sumb_d                              0.008412                          6   4
  427        augmentation_charge                   0.269381                            6   3
  428          m_sumb_d                              0.015314                          6   4
  429          fft3d_mpi                             0.056840                          6   4
  430            fftbrc_mpi                            0.055535                        6   5
  431              fftbas_plan_mpi                       0.055511                      6   6
  432                dfftw_execute                         0.007271                   18   7
  433                map_backward                          0.043804                   12   7
  434                  map_gather                            0.002753                  6   8
  435                  m_alltoallv_z                         0.039421                  6   8
  436                  map_scatter                           0.001520                  6   8
 
 Flat profile
 ============
 
             routine name                   CPU           calls
 ---------------------------------------------------------------
 edwav                                7756.627295         698
 potlok                               1269.992626         712
 m_alltoall_d                          720.871708     1695659
 dfftw_execute                         574.499220     1217604
 m_sumb_d                              561.683845      720447
 lincom                                547.882755        2119
 total_time                            479.542565           1
 m_alltoallv_z                         472.102434      407285
 orth1                                 355.054808      106791
 fftbas_plan_mpi                       251.519407      405868
 choleski                              244.304146         705
 eddiag                                229.067080         362
 fft3d_mpi                             186.423123      405868
 ggaall_grid                           157.310696         943
 fftwav_mpi                             99.402563      248087
 eccp                                   93.108037      196140
 eddav                                  93.031694           5
 map_scatter                            83.546096      407285
 racc0                                  76.642167       51417
 rpro1                                  72.100054       50717
 map_forward                            67.958207      551162
 map_gather                             55.411206      407285
 pw_charge                              36.084375       82533
 setdij_                                26.160798         895
 vhamil                                 25.170143       53237
 augmentation_charge                    22.388874         705
 w1_dscal                               15.505804       48860
 m_bcast_z                              13.479991        2380
 force_and_stress                       12.654087           7
 redis_pw                               11.222695      206013
 rpromu                                  8.737030        3185
 ggemm                                   7.670571        3257
 fftext_mpi                              7.100226      102097
 m_bcast_d                               6.025369        8412
 orthch                                  5.785126         705
 redis_proj                              5.112533      163156
 rpromu_gemm                             4.867554      726180
 lapack                                  3.846097        2557
 rspher_all                              3.212134          92
 overl                                   3.141195       54690
 forloc                                  2.822583           7
 forhar                                  2.821184           7
 map_backward                            2.162891      260574
 elmin_all                               1.924970           7
 stufak                                  1.833306           7
 kinhamil                                1.771592       53237
 soft_charge                             1.624460         705
 fftbrc_mpi                              1.365370      405868
 densta                                  1.334980         716
 rsp                                     1.003501        1431
 depsum                                  0.791946         705
 hamilt_local                            0.407751       50680
 pothar                                  0.342693         712
 set_dd_paw                              0.338066         719
 w1_copy                                 0.288168        7671
 set_charge                              0.178608         705
 strnlr                                  0.147325           7
 rpro_isp                                0.132958          91
 fft_gq                                  0.121762         705
 overl1                                  0.094635        2557
 apply_precond                           0.094332        1857
 wavpre_noio                             0.081473           6
 rcp                                     0.076391        1431
 fewald                                  0.068171        1431
 setup_precond                           0.059627         700
 hamiltmu                                0.040478        2557
 fornlr                                  0.039768           7
 strehar                                 0.039621           7
 strelo                                  0.037298           7
 strkin                                  0.036673           7
 raccmu_                                 0.031744        2557
 newband                                 0.029194        2562
 w1_projall                              0.011066        1857
 redis_pw_all                            0.004737         698
 truncate_high_frequency_w1              0.003112        3257
 redis_pw_over_bands                     0.002918         711
 set_rsgf_all                            0.001781         719
 fordep                                  0.001731           7
 potlok_metagga                          0.000789         712
 brgrid                                  0.000704           1
 phaser                                  0.000335         445
 crpa_reader                             0.000260           1
 proall                                  0.000094           7
 rotate_active_occupied_orbital          0.000083           7
 vectorpot                               0.000038           1
 set_dd_magatom                          0.000035          14
 shift_bands_between_low_high            0.000015          13
 ---------------------------------------------------------------
  summed up times    14688.4175498486     
 
 Accumulative profile
 ====================
 
             routine name                   CPU           calls
 ---------------------------------------------------------------
 total_time                          14688.417550           1
 elmin_all                           13812.799455           7
 edwav                               10975.696776         698
 potlok                               1931.438179         712
 fft3d_mpi                            1694.987954      405868
 fftbrc_mpi                           1508.564831      405868
 fftbas_plan_mpi                      1507.199462      405868
 fftwav_mpi                            980.544470      248087
 orthch                                801.531911         705
 m_alltoall_d                          720.871708     1695659
 dfftw_execute                         574.499220     1217604
 m_sumb_d                              561.683845      720447
 lincom                                547.882755        2119
 eddiag                                478.311622         362
 m_alltoallv_z                         472.102434      407285
 map_forward                           441.068932      551162
 set_charge                            406.579820         705
 redis_proj                            375.807429      163156
 soft_charge                           373.359312         705
 redis_pw                              361.399507      206013
 orth1                                 355.054808      106791
 fftext_mpi                            308.381838      102097
 choleski                              244.304146         705
 map_backward                          240.111902      260574
 eddav                                 181.056268           5
 hamilt_local                          179.219063       50680
 kinhamil                              162.759086       53237
 ggaall_grid                           157.310696         943
 eccp                                  104.781146      196140
 racc0                                 102.875928       51417
 force_and_stress                       95.695082           7
 map_scatter                            83.546096      407285
 rpro1                                  82.056652       50717
 rpro_isp                               64.731307          91
 redis_pw_over_bands                    57.359581         711
 redis_pw_all                           57.356663         698
 map_gather                             55.411206      407285
 strnlr                                 48.201439           7
 pw_charge                              36.084375       82533
 setdij_                                35.156855         895
 augmentation_charge                    31.511008         705
 vhamil                                 25.170143       53237
 fornlr                                 16.032519           7
 w1_dscal                               15.505804       48860
 rpromu                                 15.248160        3185
 hamiltmu                               13.750708        2557
 m_bcast_z                              13.479991        2380
 densta                                  9.199274         716
 set_dd_paw                              9.154552         719
 ggemm                                   7.670571        3257
 m_bcast_d                               6.025369        8412
 proall                                  5.022995           7
 rpromu_gemm                             4.867554      726180
 newband                                 4.601450        2562
 raccmu_                                 4.592314        2557
 lapack                                  3.846097        2557
 fft_gq                                  3.672807         705
 rspher_all                              3.212134          92
 overl                                   3.141195       54690
 w1_projall                              2.999171        1857
 forloc                                  2.899405           7
 forhar                                  2.881491           7
 stufak                                  1.833306           7
 wavpre_noio                             1.650863           6
 fordep                                  1.610261           7
 depsum                                  1.530892         705
 fewald                                  1.395411        1431
 pothar                                  1.376579         712
 rsp                                     1.003501        1431
 w1_copy                                 0.288168        7671
 overl1                                  0.094635        2557
 apply_precond                           0.094332        1857
 setup_precond                           0.086476         700
 strelo                                  0.077422           7
 rcp                                     0.076391        1431
 strehar                                 0.050852           7
 strkin                                  0.039245           7
 truncate_high_frequency_w1              0.003112        3257
 set_rsgf_all                            0.001781         719
 potlok_metagga                          0.000789         712
 brgrid                                  0.000704           1
 phaser                                  0.000335         445
 crpa_reader                             0.000260           1
 rotate_active_occupied_orbital          0.000083           7
 vectorpot                               0.000038           1
 set_dd_magatom                          0.000035          14
 shift_bands_between_low_high            0.000015          13
 ---------------------------------------------------------------
 
Profiling took  10.375579  3.415823  0.007626  0.006731 seconds
Profiling took  11.987588 seconds
