 vasp.6.3.2 27Jun22 (build Jul 15 2023 01:30:30) gamma-only                     
  
 executed on           IFC15_impi date 2023.09.07  10:31:48
 running   32 mpi-ranks, with    1 threads/rank
 distrk:  each k-point on   32 cores,    1 groups
 distr:  one band on NCORE=   1 cores,   32 groups


--------------------------------------------------------------------------------------------------------


 INCAR:
   ENCUT = 500.000000
   SIGMA = 0.010000
   EDIFF = 1.00e-05
   ALGO = A
   ISMEAR = 0
   NELM = 200
   NSW = 999
   LCHARG = .FALSE.
   LWAVE = .FALSE.
   LREAL = Auto
   IBRION = 5
   POTIM = 0.015
   NFREE = 2
   ISYM = 0
   EDIFFG = -0.05
   GGA = BF
   LUSE_VDW = .TRUE.
   ZAB_VDW = -1.8867
   LBEEFENS = .TRUE.

 POTCAR:    PAW_PBE C 08Apr2002                   
 POTCAR:    PAW_PBE O 08Apr2002                   
 -----------------------------------------------------------------------------
|                                                                             |
|               ----> ADVICE to this user running VASP <----                  |
|                                                                             |
|     You have switched on vdW-DFT.                                           |
|     This routine was written and supplied by Jiri Klimes. We recommend      |
|     that you carefully read and cite the following publications:            |
|       J. Klimes, D.R. Bowler, A. Michelides                                 |
|          J. Phys.: Cond Matt. 22 022201 (2010)                              |
|       J. Klimes, D.R. Bowler, A. Michelides                                 |
|          Phys. Rev. B. 83, 195131 (2011)                                    |
|     and references therein.                                                 |
|                                                                             |
 -----------------------------------------------------------------------------

 POTCAR:    PAW_PBE C 08Apr2002                   
   SHA256 =  253f7b50bb8d59471dbedb8285d89021f4a42ed1a2c5d38a03a736e69125dd95 C/POTCAR              
   COPYR  = (c) Copyright 08Apr2002 Georg Kresse                                                    
   COPYR  = This file is part of the software VASP. Any use, copying, and all other rights are regul
   COPYR  = If you do not have a valid VASP license, you may not use, copy or distribute this file. 
   VRHFIN =C: s2p2                                                                                  
   LEXCH  = PE                                                                                      
   EATOM  =   147.1560 eV,   10.8157 Ry                                                             
                                                                                                    
   TITEL  = PAW_PBE C 08Apr2002                                                                     
   LULTRA =        F    use ultrasoft PP ?                                                          
   IUNSCR =        1    unscreen: 0-lin 1-nonlin 2-no                                               
   RPACOR =    1.200    partial core radius                                                         
   POMASS =   12.011; ZVAL   =    4.000    mass and valenz                                          
   RCORE  =    1.500    outmost cutoff radius                                                       
   RWIGS  =    1.630; RWIGS  =    0.863    wigner-seitz radius (au A)                               
   ENMAX  =  400.000; ENMIN  =  300.000 eV                                                          
   ICORE  =        2    local potential                                                             
   LCOR   =        T    correct aug charges                                                         
   LPAW   =        T    paw PP                                                                      
   EAUG   =  644.873                                                                                
   DEXC   =    0.000                                                                                
   RMAX   =    1.529    core radius for proj-oper                                                   
   RAUG   =    1.300    factor for augmentation sphere                                              
   RDEP   =    1.501    radius for radial grids                                                     
   RDEPT  =    1.300    core radius for aug-charge                                                  
                                                                                                    
   Atomic configuration                                                                             
    4 entries                                                                                       
     n  l   j            E        occ.                                                              
     1  0  0.50      -273.3789   2.0000                                                             
     2  0  0.50       -13.7508   2.0000                                                             
     2  1  0.50        -5.2854   2.0000                                                             
     3  2  1.50        -5.4423   0.0000                                                             
   Description                                                                                      
     l       E           TYP  RCUT    TYP  RCUT                                                     
     0    -13.7508458     23  1.200                                                                 
     0     -8.2022199     23  1.200                                                                 
     1     -5.2854383     23  1.500                                                                 
     1     34.0145650     23  1.500                                                                 
     2     -5.4423304      7  1.500                                                                 
  local pseudopotential read in
  partial core-charges read in
  partial kinetic energy density read in
  atomic valenz-charges read in
  non local Contribution for L=           0  read in
    real space projection operators read in
  non local Contribution for L=           0  read in
    real space projection operators read in
  non local Contribution for L=           1  read in
    real space projection operators read in
  non local Contribution for L=           1  read in
    real space projection operators read in
    PAW grid and wavefunctions read in
 
   number of l-projection  operators is LMAX  =           4
   number of lm-projection operators is LMMAX =           8
 
 POTCAR:    PAW_PBE O 08Apr2002                   
   SHA256 =  818f92134a0a090dccd8ba1447fa70422a3b330e708bb4f08108d8ae51209ddf O/POTCAR              
   COPYR  = (c) Copyright 08Apr2002 Georg Kresse                                                    
   COPYR  = This file is part of the software VASP. Any use, copying, and all other rights are regul
   COPYR  = If you do not have a valid VASP license, you may not use, copy or distribute this file. 
   VRHFIN =O: s2p4                                                                                  
   LEXCH  = PE                                                                                      
   EATOM  =   432.3788 eV,   31.7789 Ry                                                             
                                                                                                    
   TITEL  = PAW_PBE O 08Apr2002                                                                     
   LULTRA =        F    use ultrasoft PP ?                                                          
   IUNSCR =        1    unscreen: 0-lin 1-nonlin 2-no                                               
   RPACOR =    1.200    partial core radius                                                         
   POMASS =   16.000; ZVAL   =    6.000    mass and valenz                                          
   RCORE  =    1.520    outmost cutoff radius                                                       
   RWIGS  =    1.550; RWIGS  =    0.820    wigner-seitz radius (au A)                               
   ENMAX  =  400.000; ENMIN  =  300.000 eV                                                          
   ICORE  =        2    local potential                                                             
   LCOR   =        T    correct aug charges                                                         
   LPAW   =        T    paw PP                                                                      
   EAUG   =  605.392                                                                                
   DEXC   =    0.000                                                                                
   RMAX   =    1.553    core radius for proj-oper                                                   
   RAUG   =    1.300    factor for augmentation sphere                                              
   RDEP   =    1.550    radius for radial grids                                                     
   RDEPT  =    1.329    core radius for aug-charge                                                  
                                                                                                    
   Atomic configuration                                                                             
    4 entries                                                                                       
     n  l   j            E        occ.                                                              
     1  0  0.50      -514.6923   2.0000                                                             
     2  0  0.50       -23.9615   2.0000                                                             
     2  1  0.50        -9.0305   4.0000                                                             
     3  2  1.50        -9.5241   0.0000                                                             
   Description                                                                                      
     l       E           TYP  RCUT    TYP  RCUT                                                     
     0    -23.9615318     23  1.200                                                                 
     0     -9.5240782     23  1.200                                                                 
     1     -9.0304911     23  1.520                                                                 
     1      8.1634956     23  1.520                                                                 
     2     -9.5240782      7  1.500                                                                 
  local pseudopotential read in
  partial core-charges read in
  partial kinetic energy density read in
  kinetic energy density of atom read in
  atomic valenz-charges read in
  non local Contribution for L=           0  read in
    real space projection operators read in
  non local Contribution for L=           0  read in
    real space projection operators read in
  non local Contribution for L=           1  read in
    real space projection operators read in
  non local Contribution for L=           1  read in
    real space projection operators read in
    PAW grid and wavefunctions read in
 
   number of l-projection  operators is LMAX  =           4
   number of lm-projection operators is LMMAX =           8
 
 -----------------------------------------------------------------------------
|                                                                             |
|               ----> ADVICE to this user running VASP <----                  |
|                                                                             |
|     You have a (more or less) 'small supercell' and for smaller cells       |
|     it is recommended to use the reciprocal-space projection scheme!        |
|     The real-space optimization is not efficient for small cells and it     |
|     is also less accurate ...                                               |
|     Therefore, set LREAL=.FALSE. in the INCAR file.                         |
|                                                                             |
 -----------------------------------------------------------------------------

 Optimization of the real space projectors (new method)

 maximal supplied QI-value         = 25.13
 optimisation between [QCUT,QGAM] = [ 11.31, 22.87] = [ 35.82,146.48] Ry 
 Optimized for a Real-space Cutoff    1.00 Angstroem

   l    n(q)    QCUT    max X(q) W(low)/X(q) W(high)/X(q)  e(spline) 
   0      7    11.310   115.676    0.43E-03    0.13E-02    0.19E-06
   0      7    11.310    87.132    0.43E-03    0.13E-02    0.18E-06
   1      6    11.310     4.429    0.42E-03    0.74E-03    0.11E-06
   1      6    11.310     2.733    0.34E-03    0.55E-03    0.92E-07
 Optimization of the real space projectors (new method)

 maximal supplied QI-value         = 24.76
 optimisation between [QCUT,QGAM] = [ 11.39, 22.77] = [ 36.31,145.25] Ry 
 Optimized for a Real-space Cutoff    1.00 Angstroem

   l    n(q)    QCUT    max X(q) W(low)/X(q) W(high)/X(q)  e(spline) 
   0      7    11.387    20.381    0.39E-03    0.13E-02    0.15E-06
   0      7    11.387    15.268    0.42E-03    0.14E-02    0.17E-06
   1      6    11.387     5.964    0.41E-03    0.11E-02    0.17E-06
   1      6    11.387     5.382    0.39E-03    0.87E-03    0.15E-06
 -----------------------------------------------------------------------------
|                                                                             |
|               ----> ADVICE to this user running VASP <----                  |
|                                                                             |
|     You enforced a specific xc type in the INCAR file but a different       |
|     type was found in the POTCAR file.                                      |
|     I HOPE YOU KNOW WHAT YOU ARE DOING!                                     |
|                                                                             |
 -----------------------------------------------------------------------------

  PAW_PBE C 08Apr2002                   :
 energy of atom  1       EATOM= -147.1560
 kinetic energy error for atom=    0.0076 (will be added to EATOM!!)
  PAW_PBE O 08Apr2002                   :
 energy of atom  2       EATOM= -432.3788
 kinetic energy error for atom=    0.0224 (will be added to EATOM!!)
 
 
 POSCAR:  C  O
  positions in direct lattice
  velocities in cartesian coordinates
 exchange correlation table for  LEXCH =       17
   RHO(1)=    0.500       N(1)  =     2000
   RHO(2)=  100.500       N(2)  =     4000
 


--------------------------------------------------------------------------------------------------------


 ion  position               nearest neighbor table
   1  0.500  0.500  0.500-   2 1.17   3 1.17
   2  0.500  0.500  0.461-   1 1.17
   3  0.500  0.500  0.539-   1 1.17
 

IMPORTANT INFORMATION: All symmetrisations will be switched off!
NOSYMM: (Re-)initialisation of all symmetry stuff for point group C_1.


----------------------------------------------------------------------------------------

                                     Primitive cell                                     

  volume of cell :   15847.8426

  direct lattice vectors                    reciprocal lattice vectors
    23.670780182  0.000000000  0.000000000     0.042246178  0.000000000  0.000000000
     0.000000000 22.317026138  0.000000000     0.000000000  0.044808838  0.000000000
     0.000000000  0.000000000 30.000000000     0.000000000  0.000000000  0.033333333

  length of vectors
    23.670780182 22.317026138 30.000000000     0.042246178  0.044808838  0.033333333

  position of ions in fractional coordinates (direct lattice)
     0.500000000  0.500000000  0.500000000
     0.500000000  0.500000000  0.460867862
     0.500000000  0.500000000  0.539132138

  ion indices of the primitive-cell ions
   primitive index   ion index
                 1           1
                 2           2
                 3           3

----------------------------------------------------------------------------------------

 
 
 KPOINTS: KPOINTS created by Atomic Simulation Env

Automatic generation of k-mesh.
 Grid dimensions read from file:
 generate k-points for:    1    1    1

 Generating k-lattice:

  Cartesian coordinates                     Fractional coordinates (reciprocal lattice)
     0.042246178  0.000000000  0.000000000     1.000000000  0.000000000  0.000000000
     0.000000000  0.044808838  0.000000000     0.000000000  1.000000000  0.000000000
     0.000000000  0.000000000  0.033333333     0.000000000  0.000000000  1.000000000

  Length of vectors
     0.042246178  0.044808838  0.033333333

  Shift w.r.t. Gamma in fractional coordinates (k-lattice)
     0.000000000  0.000000000  0.000000000

 
 Subroutine IBZKPT returns following result:
 ===========================================
 
 Found      1 irreducible k-points:
 
 Following reciprocal coordinates:
            Coordinates               Weight
  0.000000  0.000000  0.000000      1.000000
 
 Following cartesian coordinates:
            Coordinates               Weight
  0.000000  0.000000  0.000000      1.000000
 
 
 Subroutine IBZKPT_HF returns following result:
 ==============================================
 
 Found      1 k-points in 1st BZ
 the following      1 k-points will be used (e.g. in the exchange kernel)
 Following reciprocal coordinates:   # in IRBZ
  0.000000  0.000000  0.000000    1.00000000   1 t-inv F


--------------------------------------------------------------------------------------------------------




 Dimension of arrays:
   k-points           NKPTS =      1   k-points in BZ     NKDIM =      1   number of bands    NBANDS=     32
   number of dos      NEDOS =    301   number of ions     NIONS =      3
   non local maximal  LDIM  =      4   non local SUM 2l+1 LMDIM =      8
   total plane-waves  NPLWV = ******
   max r-space proj   IRMAX =    842   max aug-charges    IRDMAX=   2625
   dimension x,y,z NGX =   140 NGY =  126 NGZ =  168
   dimension x,y,z NGXF=   280 NGYF=  252 NGZF=  336
   support grid    NGXF=   280 NGYF=  252 NGZF=  336
   ions per type =               1   2
   NGX,Y,Z   is equivalent  to a cutoff of   9.83,  9.39,  9.31 a.u.
   NGXF,Y,Z  is equivalent  to a cutoff of  19.67, 18.77, 18.62 a.u.

 SYSTEM =  unknown system                          
 POSCAR =   C  O                                   

 Startparameter for this run:
   NWRITE =      2    write-flag & timer
   PREC   = normal    normal or accurate (medium, high low for compatibility)
   ISTART =      1    job   : 0-new  1-cont  2-samecut
   ICHARG =      0    charge: 1-file 2-atom 10-const
   ISPIN  =      1    spin polarized calculation?
   LNONCOLLINEAR =      F non collinear calculations
   LSORBIT =      F    spin-orbit coupling
   INIWAV =      1    electr: 0-lowe 1-rand  2-diag
   LASPH  =      F    aspherical Exc in radial PAW
 Electronic Relaxation 1
   ENCUT  =  500.0 eV  36.75 Ry    6.06 a.u.  43.16 40.69 54.70*2*pi/ulx,y,z
   ENINI  =  500.0     initial cutoff
   ENAUG  =  644.9 eV  augmentation charge cutoff
   NELM   =    200;   NELMIN=  2; NELMDL=  0     # of ELM steps 
   EDIFF  = 0.1E-04   stopping-criterion for ELM
   LREAL  =      T    real-space projection
   NLSPLINE    = F    spline interpolate recip. space projectors
   LCOMPAT=      F    compatible to vasp.4.4
   GGA_COMPAT  = T    GGA compatible to vasp.4.4-vasp.4.6
   LMAXPAW     = -100 max onsite density
   LMAXMIX     =    2 max onsite mixed and CHGCAR
   VOSKOWN=      0    Vosko Wilk Nusair interpolation
   ROPT   =   -0.00050  -0.00050
 Ionic relaxation
   EDIFFG = -.5E-01   stopping-criterion for IOM
   NSW    =     73    number of steps for IOM
   NBLOCK =      1;   KBLOCK =     73    inner block; outer block 
   IBRION =      5    ionic relax: 0-MD 1-quasi-New 2-CG
   NFREE  =      2    steps in history (QN), initial steepest desc. (CG)
   ISIF   =      2    stress and relaxation
   IWAVPR =     11    prediction:  0-non 1-charg 2-wave 3-comb
   ISYM   =      0    0-nonsym 1-usesym 2-fastsym
   LCORR  =      T    Harris-Foulkes like correction to forces

   POTIM  = 0.0150    time-step for ionic-motion
   TEIN   =    0.0    initial temperature
   TEBEG  =    0.0;   TEEND  =   0.0 temperature during run
   SMASS  =  -3.00    Nose mass-parameter (am)
   estimated Nose-frequenzy (Omega)   =  0.10E-29 period in steps = 0.42E+48 mass=  -0.128E-25a.u.
   SCALEE = 1.0000    scale energy and forces
   NPACO  =    256;   APACO  = 10.0  distance and # of slots for P.C.
   PSTRESS=    0.0 pullay stress

  Mass of Ions in am
   POMASS =  12.01 16.00
  Ionic Valenz
   ZVAL   =   4.00  6.00
  Atomic Wigner-Seitz radii
   RWIGS  =  -1.00 -1.00
  virtual crystal weights 
   VCA    =   1.00  1.00
   NELECT =      16.0000    total number of electrons
   NUPDOWN=      -1.0000    fix difference up-down

 DOS related values:
   EMIN   =  10.00;   EMAX   =-10.00  energy-range for DOS
   EFERMI =   0.00
   ISMEAR =     0;   SIGMA  =   0.01  broadening in eV -4-tet -1-fermi 0-gaus

 Electronic relaxation 2 (details)
   IALGO  =     58    algorithm
   LDIAG  =      T    sub-space diagonalisation (order eigenvalues)
   LSUBROT=      F    optimize rotation matrix (better conditioning)
   TURBO    =      0    0=normal 1=particle mesh
   IRESTART =      0    0=no restart 2=restart with 2 vectors
   NREBOOT  =      0    no. of reboots
   NMIN     =      0    reboot dimension
   EREF     =   0.00    reference energy to select bands
   IMIX   =      4    mixing-type and parameters
     AMIX     =   0.40;   BMIX     =  1.00
     AMIX_MAG =   1.60;   BMIX_MAG =  1.00
     AMIN     =   0.10
     WC   =   100.;   INIMIX=   1;  MIXPRE=   1;  MAXMIX= -45

 Intra band minimization:
   WEIMIN = 0.0010     energy-eigenvalue tresh-hold
   EBREAK =  0.78E-07  absolut break condition
   DEPER  =   0.30     relativ break condition  

   TIME   =   0.40     timestep for ELM

  volume/ion in A,a.u.               =    5282.61     35648.84
  Fermi-wavevector in a.u.,A,eV,Ry     =   0.164232  0.310354  0.366979  0.026972
  Thomas-Fermi vector in A             =   0.864138
 
 Write flags
   LWAVE        =      F    write WAVECAR
   LDOWNSAMPLE  =      F    k-point downsampling of WAVECAR
   LCHARG       =      F    write CHGCAR
   LVTOT        =      F    write LOCPOT, total local potential
   LVHAR        =      F    write LOCPOT, Hartree potential only
   LELF         =      F    write electronic localiz. function (ELF)
   LORBIT       =      0    0 simple, 1 ext, 2 COOP (PROOUT), +10 PAW based schemes


 Dipole corrections
   LMONO  =      F    monopole corrections only (constant potential shift)
   LDIPOL =      F    correct potential (dipole corrections)
   IDIPOL =      0    1-x, 2-y, 3-z, 4-all directions 
   EPSILON=  1.0000000 bulk dielectric constant

 Exchange correlation treatment:
   GGA     =    BF    GGA type
   LEXCH   =    17    internal setting for exchange type
   LIBXC   =     F    Libxc                    
   VOSKOWN =     0    Vosko Wilk Nusair interpolation
   LHFCALC =     F    Hartree Fock is set to
   LHFONE  =     F    Hartree Fock one center treatment
   AEXX    =    0.0000 exact exchange contribution

 vdW DFT:
   LUSE_VDW   =     T    switch on vdW DFT
   Zab_VDW    =******    correlation parameter
   PARAM1     =0.1234
   PARAM2     =1.0000
   PARAM3     =0.0000
   -- rVV10 --
   BPARAM     = 6.3000
   CPARAM     = 0.0093

 Linear response parameters
   LEPSILON=     F    determine dielectric tensor
   LRPA    =     F    only Hartree local field effects (RPA)
   LNABLA  =     F    use nabla operator in PAW spheres
   LVEL    =     F    velocity operator in full k-point grid
   CSHIFT  =0.1000    complex shift for real part using Kramers Kronig
   OMEGAMAX=  -1.0    maximum frequency
   DEG_THRESHOLD= 0.2000000E-02 threshold for treating states as degnerate
   RTIME   =   -0.100 relaxation time in fs
  (WPLASMAI=    0.000 imaginary part of plasma frequency in eV, 0.658/RTIME)
   DFIELD  = 0.0000000 0.0000000 0.0000000 field for delta impulse in time
 
  Optional k-point grid parameters
   LKPOINTS_OPT  =     F    use optional k-point grid
   KPOINTS_OPT_MODE=     1    mode for optional k-point grid
 
 Orbital magnetization related:
   ORBITALMAG=     F  switch on orbital magnetization
   LCHIMAG   =     F  perturbation theory with respect to B field
   DQ        =  0.001000  dq finite difference perturbation B field
   LLRAUG    =     F  two centre corrections for induced B field



--------------------------------------------------------------------------------------------------------


 finite differences
 charge density and potential will be updated during run
 non-spin polarized calculation
 Conjugate gradient for all bands (Freysoldt, et al. PRB 79, 241103 (2009))
 preconditioned conjugated gradient                                        
 perform sub-space diagonalisation
    before iterative eigenvector-optimisation
 modified Broyden-mixing scheme, WC =      100.0
 initial mixing is a Kerker type mixing with AMIX =  0.4000 and BMIX =      1.0000
 Hartree-type preconditioning will be used
 using additional bands           24
 real space projection scheme for non local part
 use partial core corrections
 no Harris-corrections to forces 
 use gradient corrections 
 use of overlap-Matrix (Vanderbilt PP)
 Gauss-broadening in eV      SIGMA  =   0.01


--------------------------------------------------------------------------------------------------------


  energy-cutoff  :      500.00
  volume of cell :    15847.84
      direct lattice vectors                 reciprocal lattice vectors
    23.670780182  0.000000000  0.000000000     0.042246178  0.000000000  0.000000000
     0.000000000 22.317026138  0.000000000     0.000000000  0.044808838  0.000000000
     0.000000000  0.000000000 30.000000000     0.000000000  0.000000000  0.033333333

  length of vectors
    23.670780182 22.317026138 30.000000000     0.042246178  0.044808838  0.033333333


 
 old parameters found on file WAVECAR:
  energy-cutoff  :      500.00
  volume of cell :    15847.84
      direct lattice vectors                 reciprocal lattice vectors
    23.670780182  0.000000000  0.000000000     0.042246178  0.000000000  0.000000000
     0.000000000 22.317026138  0.000000000     0.000000000  0.044808838  0.000000000
     0.000000000  0.000000000 30.000000000     0.000000000  0.000000000  0.033333333

  length of vectors

 
 k-points in units of 2pi/SCALE and weight: KPOINTS created by Atomic Simulation Env
   0.00000000  0.00000000  0.00000000       1.000
 
 k-points in reciprocal lattice and weights: KPOINTS created by Atomic Simulation Env
   0.00000000  0.00000000  0.00000000       1.000
 
 position of ions in fractional coordinates (direct lattice) 
   0.50000000  0.50000000  0.50000000
   0.50000000  0.50000000  0.46086786
   0.50000000  0.50000000  0.53913214
 
 position of ions in cartesian coordinates  (Angst):
  11.83539009 11.15851307 15.00000000
  11.83539009 11.15851307 13.82603586
  11.83539009 11.15851307 16.17396414
 


--------------------------------------------------------------------------------------------------------


 use serial FFT for orbitals x direction half grid
 k-point   1 :   0.0000 0.0000 0.0000  plane waves:  201172

 maximum and minimum number of plane-waves per node :    201172   201172

 maximum number of plane-waves:    201172
 maximum index in each direction: 
   IXMAX=   43   IYMAX=   40   IZMAX=   54
   IXMIN=    0   IYMIN=  -40   IZMIN=  -54


 serial   3D FFT for wavefunctions
 parallel 3D FFT for charge:
    minimum data exchange during FFTs selected (reduces bandwidth)


 total amount of memory used by VASP MPI-rank0   239090. kBytes
=======================================================================

   base      :      30000. kBytes
   nonlr-proj:        161. kBytes
   fftplans  :      37589. kBytes
   grid      :     161679. kBytes
   one-center:          4. kBytes
   wavefun   :       9657. kBytes
 
     INWAV:  cpu time      1.1818: real time      1.2411
 Broyden mixing: mesh for mixing (old mesh)
   NGX = 87   NGY = 81   NGZ =109
  (NGX  =280   NGY  =252   NGZ  =336)
  gives a total of 768123 points

 charge density for first step will be calculated from the start-wavefunctions


--------------------------------------------------------------------------------------------------------


 Maximum index for non-local projection operator          769
 Maximum index for augmentation-charges            0 (set IRDMAX)


--------------------------------------------------------------------------------------------------------


 initial charge from wavefunction
 First call to EWALD:  gamma=   0.071
 Maximum number of real-space cells 3x 3x 2
 Maximum number of reciprocal cells 3x 2x 3

    FEWALD:  cpu time      0.0067: real time      0.0068


--------------------------------------- Iteration      1(   1)  ---------------------------------------


vdW kernel read from vdw_kernel.bindat
  0.0000  0.2424  0.5071  0.7962  1.1119  1.4567  1.8333  2.2446  2.6937  3.1842
  3.7199  4.3049  4.9438  5.6415  6.4036  7.2358  8.1446  9.1372 10.2212 11.4050
 12.6979 14.1099 15.6519 17.3360 19.1751 21.1837 23.3773 25.7729 28.3892 31.2465
 34.3669 37.7748 41.4965 45.5611 50.0000
 
    POTLOK:  cpu time     28.7751: real time     28.8018
    SETDIJ:  cpu time      0.0092: real time      0.0092
    TRIAL :  cpu time      1.0321: real time      1.0588
    CORREC:  cpu time     28.5566: real time     28.5825
    CHARGE:  cpu time      0.4324: real time      0.4332
    --------------------------------------------
      LOOP:  cpu time     58.8217: real time     58.9060

 eigenvalue-minimisations  :     0
 total energy-change (2. order) :-0.1840016E+02  (-0.1930295E-06)
 number of electron      16.0000016 magnetization 
 augmentation part        1.3444356 magnetization 

 Free energy of the ion-electron system (eV)
  ---------------------------------------------------
  alpha Z        PSCENC =         0.06749671
  Ewald energy   TEWEN  =       606.86268999
  -Hartree energ DENC   =     -1456.29386380
  -exchange      EXHF   =         0.00000000
  -V(xc)+E(xc)   XCENC  =        70.91514115
  PAW double counting   =      1579.85581756    -1584.55720174
  entropy T*S    EENTRO =        -0.00000000
  eigenvalues    EBANDS =      -260.00786238
  atomic energy  EATOM  =      1024.75762730
  ---------------------------------------------------
  free energy    TOTEN  =       -18.40015521 eV

  energy without entropy =      -18.40015521  energy(sigma->0) =      -18.40015521


--------------------------------------------------------------------------------------------------------




--------------------------------------- Iteration      1(   2)  ---------------------------------------


    POTLOK:  cpu time     27.6610: real time     27.6850
    SETDIJ:  cpu time      0.0081: real time      0.0081
    TRIAL :  cpu time      0.9307: real time      0.9326
    CORREC:  cpu time     28.4670: real time     28.4924
    EDDIAG:  cpu time      0.3504: real time      0.3661
    CHARGE:  cpu time      0.4301: real time      0.4301
    --------------------------------------------
      LOOP:  cpu time     57.8495: real time     57.9174

 eigenvalue-minimisations  :     0
 total energy-change (2. order) :-0.1904084E-06  (-0.1088447E-06)
 number of electron      16.0000016 magnetization 
 augmentation part        1.3444411 magnetization 

 Free energy of the ion-electron system (eV)
  ---------------------------------------------------
  alpha Z        PSCENC =         0.06749671
  Ewald energy   TEWEN  =       606.86268999
  -Hartree energ DENC   =     -1456.29639595
  -exchange      EXHF   =         0.00000000
  -V(xc)+E(xc)   XCENC  =        70.91527889
  PAW double counting   =      1579.89486481    -1584.59625860
  entropy T*S    EENTRO =        -0.00000000
  eigenvalues    EBANDS =      -260.00545855
  atomic energy  EATOM  =      1024.75762730
  ---------------------------------------------------
  free energy    TOTEN  =       -18.40015540 eV

  energy without entropy =      -18.40015540  energy(sigma->0) =      -18.40015540


--------------------------------------------------------------------------------------------------------


  average scaling for gradient   1.0081


 average (electrostatic) potential at core
  the test charge radii are     0.6991  0.7215
  (the norm of the test charge is              1.0000)
       1 -64.3478       2 -83.2965       3 -83.2965
 
 
 
 E-fermi :  -9.2885     XC(G=0):  -0.0671     alpha+bet : -0.0158

 Fermi energy:        -9.2885478913

 k-point     1 :       0.0000    0.0000    0.0000
  band No.  band energies     occupation 
      1     -29.6383      2.00000
      2     -28.6058      2.00000
      3     -14.1665      2.00000
      4     -12.9503      2.00000
      5     -12.9300      2.00000
      6     -12.9298      2.00000
      7      -9.3912      2.00000
      8      -9.3908      2.00000
      9      -1.4879      0.00000
     10      -0.8685      0.00000
     11      -0.8684      0.00000
     12       0.0147      0.00000
     13       0.1277      0.00000
     14       0.1813      0.00000
     15       0.1815      0.00000
     16       0.1895      0.00000
     17       0.2737      0.00000
     18       0.3231      0.00000
     19       0.3252      0.00000
     20       0.3660      0.00000
     21       0.3796      0.00000
     22       0.4349      0.00000
     23       0.4380      0.00000
     24       0.4647      0.00000
     25       0.4718      0.00000
     26       0.5072      0.00000
     27       0.5312      0.00000
     28       0.5709      0.00000
     29       0.5970      0.00000
     30       0.6369      0.00000
     31       0.6836      0.00000
     32       0.7485      0.00000


--------------------------------------------------------------------------------------------------------


 soft charge-density along one line, spin component           1
         0         1         2         3         4         5         6         7         8         9
 total charge-density along one line
 
 pseudopotential strength for first ion, spin component:           1
 10.599  14.105   0.000   0.000  -0.000   0.000  -0.000   0.000
 14.105  18.768   0.000   0.000  -0.000   0.000  -0.000   0.000
  0.000   0.000  -4.538  -0.000  -0.000   8.875   0.000   0.000
  0.000   0.000  -0.000  -4.590   0.000   0.000   8.958  -0.000
 -0.000  -0.000  -0.000   0.000  -4.538   0.000  -0.000   8.875
  0.000   0.000   8.875   0.000   0.000 -19.509  -0.000  -0.000
 -0.000  -0.000   0.000   8.958  -0.000  -0.000 -19.642   0.000
  0.000   0.000   0.000  -0.000   8.875  -0.000   0.000 -19.510
 total augmentation occupancy for first ion, spin component:           1
 11.727  -5.961  -0.000  -0.000   0.000  -0.000   0.000  -0.000
 -5.961   3.232   0.000   0.000  -0.000   0.000  -0.000   0.000
 -0.000   0.000   1.224   0.000  -0.000   0.080   0.000   0.000
 -0.000   0.000   0.000   2.572  -0.000   0.000   0.327  -0.000
  0.000  -0.000  -0.000  -0.000   1.225  -0.000  -0.000   0.081
 -0.000   0.000   0.080   0.000  -0.000   0.005   0.000   0.000
  0.000  -0.000   0.000   0.327  -0.000   0.000   0.050  -0.000
 -0.000   0.000   0.000  -0.000   0.081   0.000  -0.000   0.005


------------------------ aborting loop because EDIFF is reached ----------------------------------------


    FORLOC:  cpu time      0.0679: real time      0.0679
    FORNL :  cpu time      0.4587: real time      0.4598
    STRESS:  cpu time      1.1105: real time      1.1118
    FORCOR:  cpu time     27.8040: real time     27.8292
    OFIELD:  cpu time      0.0053: real time      0.0053

  FORCE on cell =-STRESS in cart. coord.  units (eV):
  Direction    XX          YY          ZZ          XY          YZ          ZX
  --------------------------------------------------------------------------------------
  Alpha Z     0.06750     0.06750     0.06750
  Ewald     -54.12722   -41.88058   702.87036     0.00000     0.00000     0.00000
  Hartree   368.62882   380.80673   706.86089     0.00000     0.00000     0.00000
  E(xc)     -79.21728   -79.21727   -75.71374    -0.00000    -0.00000     0.00000
  Local    -546.31452  -570.73693 -1570.36631     0.00000     0.00000    -0.00000
  n-local   -48.12112   -48.05427   -53.84074     0.00000     0.00000    -0.00000
  augment    13.25265    13.24934    10.53730    -0.00000    -0.00000     0.00000
  Kinetic   345.72516   345.72709   279.49871    -0.00000    -0.00000     0.00000
  Fock        0.00000     0.00000     0.00000     0.00000     0.00000     0.00000
  -------------------------------------------------------------------------------------
  Total      -0.10601    -0.03839    -0.08603    -0.00000    -0.00000     0.00000
  in kB      -0.01072    -0.00388    -0.00870    -0.00000    -0.00000     0.00000
  external pressure =       -0.01 kB  Pullay stress =        0.00 kB


 VOLUME and BASIS-vectors are now :
 -----------------------------------------------------------------------------
  energy-cutoff  :      500.00
  volume of cell :    15847.84
      direct lattice vectors                 reciprocal lattice vectors
    23.670780182  0.000000000  0.000000000     0.042246178  0.000000000  0.000000000
     0.000000000 22.317026138  0.000000000     0.000000000  0.044808838  0.000000000
     0.000000000  0.000000000 30.000000000     0.000000000  0.000000000  0.033333333

  length of vectors
    23.670780182 22.317026138 30.000000000     0.042246178  0.044808838  0.033333333


 FORCES acting on ions:
    Electron-Ion                     Ewald-Force                    Non-Local-Force
 -----------------------------------------------------------------------------------------------
   0.118E-06 0.242E-06 -.399E-05   -.488E-17 0.781E-17 -.284E-13   0.402E-07 0.410E-06 0.103E-05
   -.441E-05 0.439E-05 0.280E+03   -.456E-17 0.572E-17 -.345E+03   0.225E-05 -.150E-05 0.642E+02
   -.233E-05 -.396E-05 -.280E+03   -.135E-16 -.456E-17 0.345E+03   0.386E-05 0.234E-05 -.642E+02
 -----------------------------------------------------------------------------------------------
   -.662E-05 0.667E-06 0.632E-05   -.230E-16 0.897E-17 0.000E+00   0.615E-05 0.124E-05 -.814E-05
 
 
 POSITION                                       TOTAL-FORCE (eV/Angst)
 -----------------------------------------------------------------------------------
     11.83539     11.15851     15.00000         0.000000      0.000000     -0.000002
     11.83539     11.15851     13.82604        -0.000002      0.000002     -0.007021
     11.83539     11.15851     16.17396         0.000002     -0.000002      0.007023
 -----------------------------------------------------------------------------------
    total drift:                               -0.000000      0.000002     -0.000002


--------------------------------------------------------------------------------------------------------



  FREE ENERGIE OF THE ION-ELECTRON SYSTEM (eV)
  ---------------------------------------------------
  free  energy   TOTEN  =       -18.40015540 eV

  energy  without entropy=      -18.40015540  energy(sigma->0) =      -18.40015540
 


--------------------------------------------------------------------------------------------------------


 BEEFens 2000 ensemble energies
             -0.174226967455973E+02
             -0.619828087487654E+00
             -0.394490743676450E+01
              0.123628345974425E+02
             -0.614953780721594E+01
             -0.495609482777706E+01
             -0.119794876415826E+02
             -0.262998798014991E+02
             -0.113437680620663E+02
             -0.121511070713285E+02
             -0.990416073568147E+01
              0.878202629604157E+00
              0.654233585602249E+00
              0.431266061585212E+00
              0.942889995282890E+00
              0.132192523528093E+02
             -0.605118836178619E+01
             -0.450150604502642E+01
              0.583609149223884E+01
             -0.313294327320719E+02
              0.154895553748915E+02
             -0.652188349813414E+01
             -0.164467393174904E+01
             -0.301198280543807E+01
             -0.593849743569621E+00
             -0.180479999488340E+01
              0.251205698378160E+02
             -0.515441104735486E+01
             -0.247612157368016E+01
             -0.149742169392298E+02
              0.212988499502761E+02
             -0.314759168390152E+01
             -0.113398099115529E+02
              0.602974008830192E+01
             -0.884320365905182E+00
              0.636831988462846E+01
             -0.494922625312100E+00
              0.130538117515016E+01
              0.893240634589000E+01
             -0.288874161247634E+02
              0.156459007475883E+02
              0.329659856643887E+01
             -0.199663755810978E+01
             -0.905698128571012E+01
              0.340719710513341E+01
             -0.439861080359573E+01
              0.130702519839462E+02
              0.102086538775398E+02
             -0.702001474219003E+01
             -0.849972426385730E+01
             -0.845111960220714E+01
             -0.101331846283806E+02
              0.486797066461062E+01
             -0.145074540519023E+02
              0.394913954082443E+01
              0.170228073170873E+02
              0.194560433245778E+02
              0.955575618452566E+01
              0.495480470207715E+01
              0.824206927047499E+01
              0.254889608256219E+02
              0.577504273528302E+01
             -0.156526077934751E+02
             -0.355146398998519E+01
             -0.767293912583244E+01
              0.176075833754844E+02
             -0.214938540238382E+02
             -0.173985960024652E+02
             -0.828713301662944E+01
             -0.341820347770349E+01
             -0.121310402687038E+02
              0.774831402693255E+01
              0.344298330416430E+01
              0.364018521524780E+01
             -0.109656067169267E+02
             -0.989076300836764E+01
             -0.156948340488476E+02
              0.101223631324575E+02
             -0.893176437864031E+01
              0.809381051938129E+01
             -0.191897564536902E+01
             -0.865396426648627E+01
             -0.155655021264523E+02
             -0.452278991161840E+01
             -0.395601603152528E+01
             -0.433407459252736E+01
              0.112234164866916E+02
              0.203253466372523E+02
             -0.119005543540408E+02
             -0.225452888869713E+02
             -0.556569463170780E+01
              0.313177483792561E+02
             -0.158608374706104E+02
              0.911564304632435E+01
             -0.272013207005145E+01
             -0.178199052722935E+02
              0.775870347473643E+01
              0.987234099172557E+01
             -0.433955814055608E+01
              0.914973951630955E+01
             -0.778659360142689E+01
             -0.152960677382119E+02
              0.264525242569203E+02
              0.126043078368236E+02
              0.770685172520490E+01
              0.349341546887453E+01
              0.558512946084168E+01
              0.233753834677609E+02
             -0.753035131732910E+01
              0.118397279480389E+01
             -0.395609529364092E+02
              0.564118638131198E+01
             -0.192815389669185E+02
              0.376411155743980E+01
              0.590609176729482E+01
             -0.967390880353477E+01
             -0.149105261897524E+02
              0.137884568792418E+01
             -0.847261385673856E+01
              0.108171716258864E+02
             -0.132294678848010E+02
             -0.117018903883422E+01
             -0.105634361718737E+02
             -0.855711801188022E+00
              0.185925168999695E+00
              0.521799921667861E+01
              0.136415800799824E+00
             -0.205489732662892E+01
              0.176372966888702E+02
              0.257134502928678E+02
              0.136077537714964E+02
              0.207574332038116E+02
             -0.385142377334964E+01
              0.290954003129586E+01
              0.149355082909711E+02
             -0.836372604184533E+00
             -0.212676632991799E+02
             -0.115959762319883E+02
             -0.140394466360079E+02
             -0.827854790010628E+01
              0.771275474142003E+01
             -0.336039958291365E+02
             -0.409264984965660E+01
              0.122808306555056E+02
             -0.113916129381352E+02
             -0.933542104714485E+01
              0.151722940361629E+02
              0.131771247119347E+02
             -0.877249636268954E+01
              0.663770724438642E+01
             -0.715391195525180E+01
              0.104472593952391E+02
              0.202360538759545E+01
              0.432040000149977E+01
             -0.240161717711221E+02
             -0.137032528524237E+02
             -0.268457934696067E+01
             -0.392066204874508E+00
             -0.112556378949048E+02
              0.305309797580147E+02
             -0.461408302497750E+01
             -0.889617019916073E+01
              0.112202416514487E+02
             -0.131874043304426E+02
             -0.100333490224998E+02
              0.877987523697550E+01
              0.303425652335783E+01
              0.321398664821663E+01
              0.355368613972153E+01
             -0.315388694610641E+01
              0.432553048925845E+01
              0.166038114418614E+02
             -0.828555253068558E+01
              0.546640312565144E+01
              0.254406293203169E+02
              0.892184590825505E+01
             -0.147224783514062E+01
             -0.523814816055429E+01
              0.431262106313000E+02
             -0.585623799039192E+01
              0.106335976066989E+02
              0.725516149202812E+01
              0.910267222279756E+01
              0.259251968738286E+02
              0.136711973296075E+02
             -0.117681684940488E+01
              0.634676470395331E+01
              0.139713714891919E+02
              0.106491446180528E+02
             -0.162625092105048E+02
              0.264540584761345E+02
             -0.241473348580051E+02
             -0.431929336867013E+01
              0.161295251112975E+02
              0.292289655112950E+01
              0.134273437998107E+01
              0.876701866188020E+01
              0.588359230105286E+01
              0.946711994124811E+01
             -0.176326892217744E+02
              0.105512426838951E+01
             -0.715489492469786E+01
             -0.202700890854278E+01
             -0.394694899699942E+00
             -0.289751001770241E+01
             -0.154809696970646E+01
              0.237292565724012E+02
             -0.183358687861639E+01
             -0.822140733288378E+01
             -0.806803128183979E+00
              0.376837780398591E+01
             -0.170886899309611E+02
             -0.133556703834113E+02
             -0.982204589480657E+01
             -0.175788099831945E+02
             -0.495780869377401E+01
             -0.116721394485551E+02
              0.510582671273012E+01
             -0.182762676251517E+00
             -0.331250515556953E+01
             -0.245916677692041E+01
              0.184756467108085E+01
             -0.580282837494644E+01
              0.184297654879042E+02
             -0.236413264611598E+02
             -0.364474800444946E+01
             -0.452000494303421E+01
              0.482802971467842E+01
              0.537610979084786E+01
             -0.137741454703993E+02
             -0.428776566826961E+01
              0.124751692870460E+02
             -0.667261845210744E+01
              0.404399145620948E+01
              0.103835475823431E+02
             -0.333084559150350E+00
              0.323396907571044E+02
             -0.470832259862104E+01
             -0.100249365861421E+02
              0.730243827240315E+00
             -0.739082826450306E+01
              0.146568811472095E+02
             -0.117712665970458E+02
              0.343046998269415E+01
              0.156058991393446E+02
             -0.390730204076381E+01
              0.333317835751194E+02
              0.356110739195135E+02
             -0.196245567888021E+02
              0.161291370171801E+02
              0.540064776154576E+01
             -0.151446465826786E+02
              0.567451841859253E+01
              0.108474368977771E+02
              0.117252662067246E+02
              0.115877162067066E+01
              0.454526107365777E+01
              0.202644915757586E+02
             -0.651169925453803E+01
              0.343567941106178E+01
              0.199225571950969E+02
             -0.103133121700989E+02
             -0.529710191252672E+01
              0.155681913770887E+02
              0.847682087366253E+01
              0.217699915186992E+02
              0.820176937701599E+01
              0.282356643748372E+01
              0.711910900213979E+01
              0.115322629445751E+02
             -0.135849917932247E+02
              0.124655335259166E+01
              0.559466737921641E+01
              0.275251508399538E+01
              0.642384496624767E+01
             -0.169746034564886E+02
              0.963804599477032E+01
             -0.123022063004865E+02
             -0.891009262414570E+01
              0.482187054616078E+01
             -0.372957548284361E+01
              0.159463202099421E+02
             -0.596407657140384E+01
              0.767784748771976E+01
              0.888601030634015E+01
              0.223679893120198E+02
              0.153583929181682E+02
              0.140941530249443E+02
             -0.239250787280606E+01
             -0.211922580531197E+01
             -0.878306041665155E+01
              0.220908276022004E+02
              0.229210444915753E+02
              0.104350868836375E+02
             -0.688915323733603E+01
              0.141084948117750E+02
             -0.207123361286186E+01
              0.582504405168002E+01
              0.185607049821978E+02
             -0.410444358305824E+00
             -0.301472013944920E+01
             -0.719507712692922E+01
             -0.157672046525122E+02
              0.269633330001397E+02
              0.129824657773345E+02
             -0.169657515967505E+02
             -0.472930402307728E+01
              0.719315365128403E+01
             -0.334051464720094E+01
              0.176106990425574E+02
              0.438048513316009E+01
              0.224764311332789E+02
              0.771166723913680E+01
             -0.725825296617506E+01
              0.598652088089260E+01
             -0.166145656888816E+01
             -0.805050389353779E+01
              0.455018187261976E+01
              0.541237755771675E+01
              0.252055892819377E+02
              0.217335058261458E+02
              0.156325834875383E+02
              0.199596046766643E+02
              0.206822690655822E+01
             -0.768389514515886E+01
              0.392017591760849E+01
             -0.980855208554506E+01
             -0.147343379423622E+02
             -0.161914041913134E+02
             -0.828693454748174E+01
             -0.307190588468752E+02
             -0.927227326224563E+01
             -0.239542303897923E+02
              0.538961962578578E+01
             -0.130898058618369E+02
              0.127772061584226E+02
             -0.267273997150070E+02
             -0.864932139225772E+01
              0.131261561299059E+02
              0.606665841605108E+01
             -0.242739822049414E+02
              0.163193931581014E+02
             -0.767376101853172E+01
              0.151380168659166E+02
             -0.795028310740484E+01
             -0.215924280594132E+02
              0.439428278011474E+01
             -0.178407386920199E+02
             -0.294916547430297E+01
             -0.107784125254807E+00
              0.120215392987154E+02
              0.352954502187271E+02
             -0.126382469490474E+02
             -0.104120770823057E+02
             -0.119438418904122E+01
             -0.307674375912404E+01
             -0.225996987397325E+02
             -0.164714159603117E+02
              0.146282546613672E+02
             -0.640054920342730E+01
              0.514581615043940E+01
             -0.137646928034670E+02
             -0.384460735233763E+01
             -0.119160891902861E+02
              0.143086102212122E+02
              0.438803560670854E+01
             -0.677919877779595E+01
             -0.404119811665336E+01
              0.298524660974482E+01
             -0.226342184596126E+01
              0.115586061896028E+02
             -0.741465190889875E+01
              0.176494982356218E+01
              0.929359747752357E+01
              0.433597422285152E+01
             -0.558694625594509E+01
              0.438011449107398E+02
              0.157647091058441E+02
              0.181490161685138E+01
              0.259241856262000E+01
             -0.171105810523099E+02
              0.891032176059487E+01
             -0.209357060628097E+02
             -0.841846257757483E+01
             -0.161847244677406E+02
             -0.528873087094335E+01
              0.161977917365806E+02
             -0.159444361093442E+02
              0.583625906465570E+01
             -0.103801905268286E+01
              0.719704316853374E+00
             -0.101074133483737E+02
             -0.122175514288853E+02
             -0.118795844830274E+01
             -0.110585745919227E+02
             -0.648357187902039E+01
             -0.112822180909849E+02
             -0.216223126926766E+01
             -0.931769400128515E+01
             -0.140619222729120E+02
              0.657812385699130E+01
             -0.460315678417369E+01
              0.584729430901960E+01
              0.287817682270312E+01
             -0.207434395748765E+02
             -0.149815779313541E+02
             -0.125136064844646E+02
              0.978722807768418E+01
             -0.704733348496774E+00
             -0.176914191613596E+02
              0.160335229551405E+02
             -0.118600825389582E+02
              0.155094201483194E+02
             -0.832214627275592E+01
             -0.135118931567764E+02
              0.772847198944791E+01
             -0.197247122441906E+02
             -0.999512879498775E+01
              0.179131737206611E+02
              0.582240796819656E+01
             -0.108911710586678E+02
              0.151399514751558E+02
             -0.465890956396848E+01
             -0.980454590929702E+01
             -0.864081258941336E+01
             -0.144448232555243E+02
              0.677388169705724E+01
             -0.252525804204487E+02
             -0.228068298044776E+02
             -0.188165729085770E+01
             -0.823330356744964E+01
             -0.165483565555897E+02
              0.208172597437144E+02
              0.378603701123211E+02
             -0.803483695762902E+01
             -0.617070918772839E+00
             -0.178836023589682E+02
              0.183150617440146E+02
              0.560039310676645E+01
             -0.515224191719142E+01
             -0.109007463667972E+02
              0.404272913524452E+01
             -0.170037585213858E+02
             -0.405464319639822E+01
             -0.250490214946355E+02
              0.922469682750511E+01
              0.430223768131334E+01
             -0.589131385893182E+00
             -0.235011158404856E+01
             -0.102853958010315E+02
             -0.296421390814967E+01
              0.371512866097732E+02
             -0.472023748077248E+01
             -0.129774010889751E+02
             -0.190756959773526E+02
              0.363062989058227E+01
             -0.100300381184424E+02
              0.203940114312641E+01
              0.858715010896245E+01
              0.182113109811486E+01
              0.922579412841904E+01
              0.436627525400584E+01
              0.170135055808751E+02
              0.812523419290110E+01
             -0.963249399924148E+01
              0.125787131448113E+02
              0.101347189774134E+02
              0.351442201974129E+01
              0.118907617275180E+02
             -0.726152438771437E+01
              0.205040843757416E+02
              0.584558617921358E+01
             -0.889500880961882E+01
             -0.201108890987069E+01
             -0.482254402898464E+01
              0.566842688261886E+01
             -0.743471426804150E+01
             -0.164929885470796E+01
             -0.310173278215322E+01
              0.227384275140321E+02
              0.155813160732298E+02
             -0.191517048543667E+02
             -0.154087453021845E+01
             -0.150027263306186E+02
             -0.416916537439266E+01
             -0.667190666848946E+01
              0.226267150545564E+01
             -0.705198295346403E+00
             -0.751330324117821E+01
              0.328344789084153E+01
             -0.227137379454359E+01
             -0.301291365676952E+01
              0.243041693201120E+02
              0.486999385442274E+01
             -0.228096937640932E+02
             -0.121427297345520E+02
              0.262193926658517E+02
              0.689372361095067E+01
             -0.248645003931813E+01
              0.304317763184086E+02
             -0.539342566505232E+01
             -0.268502594917558E+01
             -0.264314453940244E+01
              0.395239699603238E+01
              0.833611941322672E+01
              0.131889271477712E+01
              0.817773028032013E+01
             -0.412625484286981E+01
             -0.979923857510308E+01
             -0.112020610348171E+02
             -0.137758573316750E+02
              0.125116731161886E+02
              0.409811611430840E+01
              0.108031634285108E+02
              0.438145440946244E+01
              0.247923775655670E+02
              0.494811736568747E+01
             -0.221708119361928E+02
             -0.936240005666740E+01
              0.231178061213319E+01
             -0.806863754484038E+01
              0.176015713597059E+02
             -0.377524471936493E+01
              0.460582545440321E+01
              0.146105806426507E+02
             -0.216309840768678E+02
              0.417653695480450E+02
              0.556159264933079E+01
              0.697659392882071E+01
              0.102909852309869E+02
              0.188470056938337E+01
             -0.784748653236946E+00
              0.960892982550570E+01
             -0.984984886435744E+01
              0.231357636478585E+02
              0.202807372167690E+02
             -0.109272469955320E+02
              0.491694547884939E+01
              0.197886790721053E+02
             -0.625091179027313E+01
              0.499422480721938E+01
              0.108813116472283E+02
              0.121866289401272E+02
             -0.214438835787017E+02
             -0.292500193634962E+01
             -0.881997356734753E+01
             -0.158973961429719E+01
             -0.195698082802158E+01
              0.255039744350995E+00
             -0.488216531160673E+01
             -0.808834160612088E+01
              0.315923307925657E+01
              0.264763965887586E+01
              0.151307879541913E+02
             -0.120814406534019E+02
              0.112660937922164E+02
              0.136448686115462E+02
             -0.407323380728151E+01
              0.227307841382336E+02
             -0.190696151283364E+02
             -0.291434794440006E+02
             -0.156820136583792E+01
             -0.149886951295343E+01
              0.891516400247696E+00
              0.216269494408882E+02
             -0.169957143171126E+01
              0.116058246923519E+02
              0.147707451343129E+02
              0.109888420354000E+02
             -0.157809852382320E+01
              0.176349052309037E+02
             -0.450178577342714E+01
             -0.982339046723826E+01
             -0.123603508354591E+02
              0.176763279914774E+01
              0.108388029556297E+02
             -0.150895986620511E+01
              0.105489801665697E+02
             -0.117068566626379E+00
              0.168669236470743E+02
              0.526300435300129E+01
              0.224334456818383E+01
             -0.146743976001591E+01
              0.885201696296326E+01
              0.109909870257990E+02
              0.539971158557711E+01
             -0.539524632572700E+00
             -0.150398886816452E+02
              0.796178824083052E+01
              0.550892971725688E+01
              0.104375100991085E+02
              0.851419331215723E+01
              0.100237698951826E+02
             -0.191162649963828E+01
              0.817159936576306E+01
             -0.817494217863162E+01
             -0.733386898118994E+00
             -0.155137981836262E+02
             -0.933868576920975E+01
              0.116391656048008E+02
             -0.255934150521921E+02
              0.779150482094269E+01
              0.449899312728780E+01
              0.241093672144256E+02
             -0.634035397576767E+01
              0.905196358348422E+01
             -0.367684252398405E+01
             -0.134312864840133E+02
             -0.201760096878198E+02
             -0.291920584661443E+01
             -0.253607872339446E+02
              0.416318892085650E+01
             -0.647465343023562E+01
              0.879801007770224E+01
              0.633725210894318E+01
             -0.728983444128561E+01
             -0.778312540575394E+01
              0.117239497855582E+02
             -0.157859584528676E+02
             -0.358732841131656E+01
             -0.494831777589464E+01
              0.640818177341701E+01
             -0.883998921242807E+00
              0.124498002632355E+01
             -0.507409036115884E+01
              0.154183842853924E+02
             -0.143739916226426E+02
              0.257221058863124E+01
              0.167088960309308E+02
             -0.933582880097340E+01
              0.789924334691626E+00
             -0.122181398280605E+01
             -0.192639647936257E+02
             -0.127070679079266E+02
             -0.161647431045826E+01
              0.786309806547840E+01
              0.890410375250309E+01
              0.186023331430846E+01
             -0.215705031401890E+01
              0.510282379095298E+01
             -0.122287846195735E+02
             -0.260053753881948E+00
             -0.148572870466403E+02
             -0.778454225562265E+01
              0.136209575815356E+02
             -0.853718011470946E+01
              0.185251721014880E+02
             -0.612475451791782E+01
              0.992898578507776E+01
              0.724845458551473E+01
             -0.172186237124120E+02
             -0.792816178910576E+01
              0.225507599868193E+01
             -0.107086983710080E+02
             -0.109558174778219E+02
             -0.240312740102423E+02
             -0.158722046305910E+02
             -0.142028768302841E+02
             -0.122010542961808E+02
              0.216003126952451E+00
              0.497090851145854E+01
              0.161152719491072E+01
              0.599152923778270E+01
             -0.162665963565819E+02
              0.361622808740893E+01
              0.708237786317746E+01
             -0.191837328263976E+02
             -0.175497190717790E+02
             -0.111569644797000E+02
             -0.714706826985292E+01
              0.486517320168855E+01
              0.199014157448062E+00
             -0.120770712182060E+02
              0.944952307141803E+01
             -0.574893452110727E+01
              0.148206068979687E+02
             -0.245269492255876E+02
              0.169209551812480E+02
             -0.146959806499624E+01
             -0.117813098667717E+02
             -0.733800380960850E+01
              0.114232027834124E+00
              0.121586765063775E+02
             -0.203713089406080E+02
             -0.360465478607930E+01
             -0.518565600237643E+01
              0.131132997237385E+02
              0.229892879588927E+02
             -0.276564032880177E+02
              0.261590850141373E+02
              0.120903478080239E+02
             -0.211014678858519E+02
             -0.973691869785478E+01
              0.215404623516824E+02
              0.168529608895100E+02
             -0.553659204109496E+01
             -0.166704841408288E+01
              0.376634067786585E+01
              0.201980099121736E+02
             -0.155699018810997E+02
              0.445661297556903E+01
             -0.161242676634251E+01
              0.885348675458243E+01
             -0.203438980895647E+02
             -0.139527238400418E+01
             -0.894669462948240E+01
              0.132335918861620E+02
              0.116433618863906E+02
             -0.246180353536543E+02
             -0.136725253988975E+02
             -0.650135439463168E+01
             -0.106993159990220E+02
             -0.368886908981099E+01
             -0.622798940705446E+01
              0.126042122129651E+02
              0.119596080449839E+02
             -0.156041023717017E+01
             -0.117907255120181E+02
             -0.239441525391632E+02
              0.131010216203969E+02
             -0.138909281252965E+02
             -0.920065536856679E+01
              0.195504580811599E+01
             -0.962294537747448E+01
             -0.114668400558086E+02
             -0.793531913109713E+01
             -0.127001172571570E+02
             -0.697843724058878E+01
             -0.137672578505173E+02
              0.161663245502692E+02
              0.177380986110265E+02
             -0.162409373722443E+01
             -0.664389869016608E+01
             -0.377335058098481E+00
              0.118347993206653E+02
             -0.246392553553405E+02
             -0.597134353861590E+01
              0.146595076036708E+02
              0.189015111755143E+02
             -0.475260582352630E+01
              0.312258383371218E+01
              0.147476195438919E+02
              0.473672628383904E+01
             -0.101428976343932E+01
             -0.113581069822057E+02
              0.569944668641753E+01
             -0.963669342516297E+01
             -0.432484667794817E+01
             -0.514318934040917E+01
             -0.485462686008924E+01
              0.582697370509057E+01
              0.226245617801973E+02
             -0.971139847116866E+00
              0.957131667831497E+00
             -0.256460655998708E+02
             -0.519305687060819E+01
             -0.102882387420093E+02
              0.864029749821555E+00
             -0.117563849819168E+02
              0.227651219620117E+02
              0.238245414937794E+02
              0.492444455162756E+01
             -0.519869108007370E+01
              0.423572540611752E+01
              0.715573474239061E+01
             -0.130807797102041E+02
             -0.227594500431570E+01
              0.425299574266023E+01
              0.388464823572773E+01
              0.149389343345950E+02
              0.119455758441629E+02
             -0.583506760154876E+01
              0.777826541636828E+01
             -0.274611946953137E+02
             -0.101943865156009E+01
              0.247181430506532E+02
              0.410389350633110E+01
              0.487913778727886E-01
              0.854793333922154E+01
             -0.699752743273053E+01
              0.260764804877114E+02
             -0.437372042568359E+01
              0.234888484919523E+02
              0.105242244204467E+02
             -0.120269651748231E+02
              0.902843891662255E+01
             -0.834785413275193E+01
             -0.191487666496256E+02
             -0.184792915059151E+01
             -0.154905633492164E+02
             -0.152967911819967E+02
             -0.881443948746501E+00
              0.927462669921061E+01
             -0.233094417265075E+01
             -0.977353786086502E+01
              0.228538733790782E+01
             -0.196780032871037E+02
             -0.181563274565152E+01
             -0.241796344597823E+02
              0.151645498095513E+02
             -0.667102278452525E+00
             -0.138462918728341E+02
             -0.603809351613997E+01
              0.503212660493581E+01
             -0.936256496062871E+01
             -0.126422203643969E+02
              0.249988562876187E+02
             -0.686800642119582E+01
             -0.124035824983230E+02
              0.810011394873558E+01
             -0.431528433341465E+01
              0.144150982555315E+02
             -0.257479057946540E+00
              0.176365434516987E+01
              0.292179160928430E+02
             -0.446081875056632E+01
             -0.101373104595815E+02
             -0.111951638013080E+02
             -0.153368214016627E+02
             -0.978423413880790E+01
              0.768764464993933E+01
              0.694061588179331E+01
              0.705213618268730E+01
              0.208208197723404E+02
              0.539810538171352E+00
              0.545997664635067E+01
             -0.181045040951311E+02
              0.277980498109471E+00
             -0.640930534404146E+01
             -0.819382619016065E+01
              0.280809776173584E+00
              0.947458727261584E+01
              0.107786972817844E+02
             -0.229760580955051E+00
              0.252593689366921E+01
              0.854508141478601E+01
              0.108435288508561E+02
             -0.607074990216706E+01
             -0.313549865766970E+01
              0.343634120023005E+00
             -0.706572479244221E+01
             -0.237839303519806E+01
             -0.852442354259425E+01
              0.212531429125218E+02
              0.177642944913262E+02
             -0.462212527339003E+01
              0.396714756991921E+01
             -0.111761837938209E+01
             -0.720527742799571E+01
              0.957070062569637E+01
             -0.256331925975883E+01
              0.995441907372094E+01
             -0.145758756671032E+02
              0.513900710758027E+01
             -0.289828185691999E+01
             -0.152832791038098E+02
             -0.725023194776190E+01
              0.724163413863757E+01
             -0.261615374942466E+02
              0.109706044969569E+02
              0.134280840322157E+02
             -0.230942148658342E+01
             -0.157856632587070E+01
             -0.800443362838166E+00
              0.676158796918315E+01
             -0.938975595917829E+01
              0.100273118162734E+02
              0.831954762332566E+01
             -0.288437367290694E+02
             -0.937624274235846E+01
              0.672806140021064E+01
             -0.282098112664325E+01
              0.117444475565348E+02
             -0.172425776062926E+02
             -0.111451927931566E+01
             -0.114115556531386E+02
             -0.356549066165251E+02
              0.218177945450634E+02
             -0.168387972561573E+02
             -0.174014801572305E+02
              0.253039577962815E+01
              0.362508718328446E+02
              0.692887932634221E+00
             -0.744093288005273E+01
             -0.296090559590198E+00
             -0.137846873338817E+01
             -0.248052998811003E+02
             -0.168746316113158E+02
              0.233088120624620E+02
             -0.251013391408827E+01
             -0.108149637094079E+02
              0.147717342995481E+02
             -0.951446447772797E+01
              0.104366574245084E+02
              0.148673968673031E+02
             -0.164280592219834E+02
             -0.744947246496660E+01
             -0.906098438283883E+01
             -0.413198887855762E+01
             -0.592969992703657E+01
             -0.319752018453221E+01
              0.428389276070249E+01
             -0.954838231460323E+01
              0.836166895225579E+01
              0.166646500697803E+02
             -0.347677726320731E+01
             -0.507174621163075E+01
              0.394681134696864E+01
              0.155680344220318E+02
              0.142822777112334E+02
              0.139690039848929E+01
             -0.142160635545744E+01
             -0.199874048933300E+01
             -0.145876134202815E+02
              0.111600213602198E+02
             -0.706403809259965E+01
              0.541984595847345E+01
             -0.451863674352003E+01
              0.805748986080057E+01
              0.463101033742245E+01
             -0.227288109208346E+02
             -0.803609606054943E+01
             -0.220353039705867E+02
             -0.964429011654721E+01
              0.158752063760561E+01
             -0.474420711541605E+01
              0.889498366522341E+01
             -0.804888679501663E+01
              0.631824609139020E+00
              0.255753058107294E+01
              0.208674001559379E+02
              0.109019541949446E+02
             -0.781174999523307E+01
             -0.185031130676485E+00
              0.372742365926879E+01
              0.106728005283056E+02
              0.404834015383528E-01
              0.152498585326541E+02
              0.770249611588591E+01
              0.250158734081296E+02
              0.126752072874632E+01
              0.192273740078335E+02
             -0.717660068054839E+01
             -0.110118107611798E+02
              0.208606748276921E+01
              0.192874578044575E+01
              0.770454177565820E+01
             -0.314536964879611E+01
             -0.399288322644184E+01
              0.673643971354645E+01
             -0.133026029503842E+02
             -0.151473612946050E+02
              0.213777490823734E+02
             -0.194672902858028E+01
             -0.119815400245593E+02
             -0.959551699685587E+00
             -0.401838648947253E+01
              0.104304680146764E+02
              0.976917058003683E+01
             -0.573037641235618E+01
             -0.177762519916762E+00
             -0.775606670272983E+01
             -0.969330408246483E+01
             -0.740670995732779E+01
             -0.269235692231504E+02
             -0.769859674334533E+00
             -0.190472256733784E+02
             -0.157575833645672E+02
             -0.116019382119542E+02
              0.506349452132486E+01
             -0.108990949775769E+02
              0.584472881652794E+01
             -0.169683479543939E+02
              0.212905694325826E+00
             -0.113930684203695E+02
              0.166890199599820E+01
              0.259952429539875E+01
              0.904301446492997E+01
             -0.579173404703340E+01
             -0.516543073176436E+01
              0.802550369758266E+01
              0.174226671567626E+02
              0.889825852400969E+01
              0.231692202924114E+01
             -0.200510835240140E+02
             -0.407523683509307E+01
             -0.851341605568655E+01
             -0.174938886730496E+02
              0.124352968424059E+02
             -0.980258294965749E+01
             -0.138097014390068E+01
             -0.734416338979831E+01
             -0.284989260807821E+02
              0.150160995432629E+02
             -0.511354055225482E+01
              0.115392621071575E+02
             -0.203841972259128E+02
              0.186211606147787E+02
              0.113880867712621E+01
             -0.835021536748362E+01
              0.161536737036906E+01
             -0.649650615196001E+01
             -0.195621143390565E+02
              0.465372396366404E+01
              0.893495459507344E+01
              0.564216538699839E+00
             -0.978607295420505E+01
             -0.389433819519064E+01
              0.516635662089747E+01
              0.884571726113064E+01
              0.179643468526250E+02
              0.722719550635162E+01
             -0.627661974480631E+01
              0.255542825246378E+02
              0.715479170445930E+01
              0.118445900325526E+02
             -0.453826799375139E+01
              0.799206870740998E+01
              0.524482773439698E+01
             -0.179718078037599E+02
             -0.571307418364035E+01
             -0.110620520718980E+02
             -0.976351748930297E+01
             -0.283527755537847E+01
             -0.400416557335791E+01
             -0.113353885076574E+02
             -0.322113202696061E+02
             -0.799384470030812E+01
              0.449096732295723E+01
              0.174567978577483E+01
              0.293581576997297E+01
              0.128104510301740E+02
              0.434612016478635E+01
              0.876926385017066E+01
             -0.123378010279170E+02
              0.130196650278331E+02
             -0.124606742964798E+02
             -0.205889507589673E+02
              0.486121589617122E+01
             -0.110375818454469E+02
             -0.117430541754957E+02
             -0.449484830412152E+02
             -0.301826863086444E+01
              0.229624995194386E+02
              0.128104423908190E+02
             -0.332667011248026E+01
             -0.283068340200906E+01
              0.949492662158482E+01
              0.184900381933018E+02
             -0.117725262259718E+02
             -0.279391442400456E+01
             -0.922786238734906E+01
             -0.100720900457968E+02
             -0.922347449806580E+01
              0.410206600458276E+01
              0.203291272276312E+02
             -0.189138386964456E+02
             -0.151448286636761E+02
              0.510538410698715E+00
             -0.288378766025784E+01
             -0.494137841033763E+01
             -0.257497746374026E+02
              0.163034471050766E+02
              0.688604504777965E+01
              0.178415478234233E+01
              0.140552814186939E+02
             -0.868470635048199E+01
              0.899357735548352E+01
              0.784849706560004E+01
              0.153580274157014E+01
             -0.205740214174432E+01
              0.334882126997471E+01
             -0.418192122325942E+01
              0.130766446687559E+02
             -0.119362397512270E+02
              0.117872556067453E+02
              0.281421730206863E+01
              0.390557593543112E+01
              0.637019656674556E+01
             -0.235227574200318E+02
              0.212988589146784E+01
             -0.187252461052834E+02
             -0.140989011823504E+02
             -0.138919316780587E+02
             -0.134267045011501E+02
              0.773568512585172E+00
              0.427829799075904E+01
              0.135564130938601E+02
              0.257169305629232E+01
              0.407915953855029E+01
             -0.200678235264068E+02
             -0.749388733931625E+01
              0.957377364428966E+01
              0.421933195813374E+00
             -0.106219323569690E-03
             -0.251943279197246E+01
              0.100896162774041E+02
             -0.260535208685255E+02
              0.323525287881416E+01
              0.668389508342430E+01
              0.119567744376085E+02
              0.105869858158770E+02
             -0.160838388360480E+02
              0.329001208458980E+01
              0.160239895050006E+01
              0.184883393019557E+01
              0.513651862066084E+00
             -0.618129383456809E+01
             -0.100316078547688E+02
              0.460830662764911E+01
              0.171900091598363E+02
             -0.233380364370646E+01
              0.307832410786884E+01
              0.389099933770659E+01
             -0.771585128855354E+01
             -0.751557414749897E+01
             -0.332311685876610E+02
             -0.113561890292119E+02
             -0.150833890388474E+02
             -0.253216498704728E+01
             -0.185225276183046E+02
              0.216764946988940E+02
[...]
  180          overl                                 0.000371                         19   4
  181          redis_proj                            0.033940                         57   4
  182            m_alltoall_d                          0.033070                       57   5
  183        m_sumb_d                              0.073768                          437   3
  184      rotate_active_occupied_orbital        0.000134                             19   2
  185      force_and_stress                    557.071287                             19   2
  186        forloc                                1.269162                           19   3
  187          m_sumb_d                              0.019875                         19   4
  188        fornlr                                8.470343                           19   3
  189          rspher_all                            0.088525                         57   4
  190          phaser                                0.000026                         57   4
  191          rpro_isp                              8.337177                         57   4
  192            fftwav_mpi                            8.206690                       57   5
  193              fftwav                                8.206433                     57   6
  194                fft3d                                 5.962713                   57   7
  195            rpromu                                0.009997                       57   5
  196              rpromu_gemm                           0.003548                    171   6
  197          m_sumb_d                              0.042430                         19   4
  198        fordep                                0.031774                           19   3
  199          setdij_                               0.030831                        114   4
  200            m_sumb_d                              0.018357                      114   5
  201        setdij_                               0.093869                          380   3
  202          m_sumb_d                              0.054935                        380   4
  203        set_dd_magatom                        0.000032                           19   3
  204        set_dd_paw                            0.136211                           19   3
  205          set_rsgf_all                          0.000026                         19   4
  206          m_sumb_d                              0.134277                        133   4
  207        strkin                                0.050416                           19   3
  208          m_sumb_d                              0.003123                         19   4
  209        strelo                                1.011611                           19   3
  210          m_sumb_d                              0.066156                         38   4
  211        strnlr                               19.956899                           19   3
  212          rspher_all                            0.269347                        171   4
  213          phaser                                0.000111                        171   4
  214          rpro_isp                             19.595543                        171   4
  215            fftwav_mpi                           19.545185                      171   5
  216              fftwav                               19.544277                    171   6
  217                fft3d                                16.229156                  171   7
  218            rpromu                                0.039743                      171   5
  219              rpromu_gemm                           0.013570                    513   6
  220          m_sumb_d                              0.082496                         19   4
  221        fft3d_mpi                            86.241979                         1349   3
  222          fftbrc_mpi                           79.473804                       1349   4
  223            fftbas_plan_mpi                      79.469447                     1349   5
  224              dfftw_execute                        25.411213                   4047   6
  225              map_forward                          25.465166                   1330   6
  226                map_gather                            6.680859                  665   7
  227                m_alltoallv_z                         4.530474                  665   7
  228                map_scatter                          14.236798                  665   7
  229              map_backward                         27.535475                   1368   6
  230                map_gather                            9.243762                  684   7
  231                m_alltoallv_z                         4.348657                  684   7
  232                map_scatter                          13.922581                  684   7
  233        ggaall_grid                           4.772709                           19   3
  234        m_sumb_d                              0.163782                          114   3
  235        forhar                                1.207689                           19   3
  236          m_sumb_d                              0.010802                         19   4
  237        strehar                               2.048890                           19   3
  238          m_sumb_d                              0.016177                         19   4
  239        m_bcast_d                             0.015296                           38   3
  240      potlok                             1506.300888                             37   2
  241        fft3d_mpi                           488.084953                         7565   3
  242          fftbrc_mpi                          450.408070                       7565   4
  243            fftbas_plan_mpi                     450.381556                     7565   5
  244              dfftw_execute                       138.083888                  22695   6
  245              map_forward                         156.942747                   7602   6
  246                map_gather                           49.530796                 3838   7
  247                m_alltoallv_z                        25.362252                 3838   7
  248                map_scatter                          81.940070                 3838   7
  249              map_backward                        149.789925                   7528   6
  250                map_gather                           51.306262                 3764   7
  251                m_alltoallv_z                        22.568612                 3764   7
  252                map_scatter                          75.809100                 3764   7
  253        ggaall_grid                          83.383717                          645   3
  254        m_sumb_d                              0.526023                         3262   3
  255        pothar                                0.418128                           37   3
  256          m_sumb_d                              0.019559                         37   4
  257        m_bcast_d                             0.897436                           37   3
  258      potlok_metagga                        0.000175                             37   2
  259      set_dd_magatom                        0.000014                             19   2
  260      set_dd_paw                            0.260836                             37   2
  261        set_rsgf_all                          0.000051                           37   3
  262        m_sumb_d                              0.254855                          259   3
  263      m_sumb_d                              0.001260                             19   2
  264      wavpre_noio                           3.776366                             18   2
  265        stufak                                0.583857                           18   3
  266      eddiag                                6.222224                             18   2
  267        overl                                 0.000361                           18   3
  268        redis_proj                            0.030918                           54   3
  269          m_alltoall_d                          0.030158                         54   4
  270        fftwav_mpi                            2.796265                           18   3
  271          fftwav                                2.796173                         18   4
  272            fft3d                                 2.039491                       18   5
  273        hamilt_local                          2.749428                           18   3
  274          vhamil                                1.064124                         18   4
  275          kinhamil                              1.684912                         18   4
  276            fftext_mpi                            1.647380                       18   5
  277              fft3d_mpi                             1.525237                     18   6
  278                fft3d                                 1.524994                   18   7
  279        redis_pw                              0.411150                           54   3
  280          m_alltoall_d                          0.255554                         54   4
  281        orth1                                 0.041364                           18   3
  282        m_sumb_d                              0.005849                           18   3
  283        shift_bands_between_low_high          0.000022                           18   3
  284        lincom                                0.065499                           18   3
 
 Flat profile
 ============
 
             routine name                   CPU           calls
 ---------------------------------------------------------------
 potlok                               9566.678144         417
 map_scatter                           772.323037       38287
 dfftw_execute                         700.236742      112413
 map_gather                            455.939243       38287
 force_and_stress                      431.600626          19
 ggaall_grid                           253.808154        1044
 m_alltoallv_z                         253.757257       38287
 fft3d_mpi                             239.087621       37888
 fft3d                                 151.180196        1670
 edwav                                  37.776626         380
 m_sumb_d                               34.451378       15956
 fftwav                                 32.345898        1253
 soft_charge                            29.856347         399
 fftbas_plan_mpi                        28.885980       37471
 eccp                                   25.819554         760
 vhamil                                 13.489313         227
 total_time                             12.818201           1
 m_alltoall_d                           10.658424        6777
 m_bcast_d                              10.173312         494
 augmentation_charge                     7.637458         399
 w1_dscal                                6.243710         190
 redis_pw                                5.467141        1859
 pw_charge                               4.675072         399
 pothar                                  4.523096         417
 lincom                                  3.956599        1196
 wavpre_noio                             3.192509          18
 fftext_mpi                              2.398247         417
 strehar                                 2.032713          19
 set_charge                              1.908018         399
 fft_gq                                  1.418749         399
 orth1                                   1.348045         626
 forloc                                  1.249287          19
 forhar                                  1.196887          19
 eddiag                                  1.077343         227
 strelo                                  0.945455          19
 elmin_all                               0.802802          19
 stufak                                  0.620206          19
 kinhamil                                0.569076         227
 map_backward                            0.542480       37852
 map_forward                             0.502804       37090
 rspher_all                              0.378112         248
 rpro_isp                                0.167190         247
 setdij_                                 0.145687         912
 fftbrc_mpi                              0.132643       37471
 m_bcast_z                               0.112573          33
 racc0                                   0.091249         190
 set_dd_paw                              0.066974         436
 redis_proj                              0.065801        4918
 rpro1                                   0.065340         190
 choleski                                0.064550         399
 strkin                                  0.047292          19
 orthch                                  0.038320         399
 rpromu                                  0.034429         247
 densta                                  0.030164         400
 overl                                   0.027549        1006
 rpromu_gemm                             0.023007         741
 rsp                                     0.012001          19
 depsum                                  0.009871         399
 strnlr                                  0.009402          19
 brgrid                                  0.009337           1
 fftwav_mpi                              0.006828        1253
 redis_pw_all                            0.006401         380
 fewald                                  0.006229          19
 hamilt_local                            0.003932         227
 rcp                                     0.002359          19
 potlok_metagga                          0.002188         417
 redis_pw_over_bands                     0.002186         417
 fornlr                                  0.002185          19
 fordep                                  0.000943          19
 set_rsgf_all                            0.000585         436
 proall                                  0.000313          19
 phaser                                  0.000283         437
 crpa_reader                             0.000239           1
 rotate_active_occupied_orbital          0.000134          19
 set_dd_magatom                          0.000045          38
 shift_bands_between_low_high            0.000044          37
 vectorpot                               0.000013           1
 ---------------------------------------------------------------
  summed up times    13114.7601480484     
 
 Accumulative profile
 ====================
 
             routine name                   CPU           calls
 ---------------------------------------------------------------
 total_time                          13114.760148           1
 potlok                              12129.367507         417
 elmin_all                           11014.853487          19
 fft3d_mpi                            2486.813760       37888
 fftbrc_mpi                           2212.320185       37471
 fftbas_plan_mpi                      2212.187542       37471
 map_scatter                           772.323037       38287
 map_backward                          752.804450       37852
 map_forward                           730.260370       37090
 dfftw_execute                         700.236742      112413
 force_and_stress                      557.071287          19
 map_gather                            455.939243       38287
 ggaall_grid                           253.808154        1044
 m_alltoallv_z                         253.757257       38287
 edwav                                 184.616392         380
 set_charge                            169.084543         399
 fft3d                                 151.180196        1670
 fftwav_mpi                            148.126968        1253
 fftwav                                148.120140        1253
 soft_charge                           133.428213         399
 eddiag                                 48.114664         227
 fft_gq                                 44.331455         399
 fftext_mpi                             37.809818         417
 hamilt_local                           34.793353         227
 m_sumb_d                               34.451378       15956
 augmentation_charge                    33.442329         399
 rpro_isp                               30.887518         247
 eccp                                   25.819554         760
 kinhamil                               21.300108         227
 strnlr                                 19.956899          19
 redis_pw                               13.546838        1859
 vhamil                                 13.489313         227
 m_alltoall_d                           10.658424        6777
 m_bcast_d                              10.173312         494
 fornlr                                  8.470343          19
 w1_dscal                                6.243710         190
 pothar                                  4.675283         417
 pw_charge                               4.675072         399
 lincom                                  3.956599        1196
 wavpre_noio                             3.776366          18
 set_dd_paw                              3.051951         436
 proall                                  2.955121          19
 redis_pw_over_bands                     2.726600         417
 redis_pw_all                            2.724414         380
 redis_proj                              2.644527        4918
 orthch                                  2.439690         399
 strehar                                 2.048890          19
 orth1                                   1.348045         626
 forloc                                  1.269162          19
 forhar                                  1.207689          19
 strelo                                  1.011611          19
 stufak                                  0.620206          19
 setdij_                                 0.612416         912
 densta                                  0.421519         400
 rspher_all                              0.378112         248
 depsum                                  0.305983         399
 m_bcast_z                               0.112573          33
 racc0                                   0.091249         190
 rpro1                                   0.065340         190
 choleski                                0.064550         399
 rpromu                                  0.057436         247
 strkin                                  0.050416          19
 fordep                                  0.031774          19
 fewald                                  0.028656          19
 overl                                   0.027549        1006
 rpromu_gemm                             0.023007         741
 rsp                                     0.012001          19
 brgrid                                  0.009337           1
 rcp                                     0.002359          19
 potlok_metagga                          0.002188         417
 set_rsgf_all                            0.000585         436
 phaser                                  0.000283         437
 crpa_reader                             0.000239           1
 rotate_active_occupied_orbital          0.000134          19
 set_dd_magatom                          0.000045          38
 shift_bands_between_low_high            0.000044          37
 vectorpot                               0.000013           1
 ---------------------------------------------------------------
 
Profiling took   0.679916  0.245750  0.013392  0.012731 seconds
Profiling took   1.262498 seconds
